
include ${pot}.lmp
include kalj.lmp
units lj
atom_style atomic

variable dimensions equal 3
variable density equal 1.2
variable fraca equal 0.8

dimension ${dimensions}
dimension 3
read_restart ${prevbasename}.final.lmprestart.${steps}
read_restart equil/kalj_T0.65_n360_v300_350000_1.final.lmprestart.${steps}
read_restart equil/kalj_T0.65_n360_v300_350000_1.final.lmprestart.350000
Reading restart file ...
  restart file = 15 Sep 2022, LAMMPS = 15 Sep 2022
  restoring atom style atomic from restart
  orthogonal box = (0 0 0) to (6.6943295 6.6943295 6.6943295)
  1 by 2 by 2 MPI processor grid
  restoring pair style lj/cut from restart
  360 atoms
  read_restart CPU = 0.038 seconds
include ${pot}_particles.lmp
include kalj_particles.lmp
mass * 1.0 #  set mass 1.0 for all types

pair_style lj/cut 2.5
#pair coeffs type1 type2 eps sigma
pair_coeff 1 1 1.0 1.00 2.5
pair_coeff 1 2 1.5 0.80 2.0
pair_coeff 2 2 0.5 0.88 2.2
pair_modify shift yes
reset_timestep 0

print "Setting up equilibration run"
Setting up equilibration run
variable dumptime2 equal ${steps}/2000
variable dumptime2 equal 350000/2000
dump 1 all dcd ${dumptime2} ${basename}.unwrap.dcd
dump 1 all dcd 175 ${basename}.unwrap.dcd
dump 1 all dcd 175 prod/kalj_T0.65_n360_v300_prod_350000_1.unwrap.dcd
#dump 2 all dcd ${dumptime2} ${basename}.dcd
dump_modify 1 unwrap yes
#dump_modify 2 unwrap no

restart ${restarttime} ${basename}.restart
restart 350000 ${basename}.restart
restart 350000 prod/kalj_T0.65_n360_v300_prod_350000_1.restart
restart ${steps} ${basename}.final.lmprestart
restart 350000 ${basename}.final.lmprestart
restart 350000 prod/kalj_T0.65_n360_v300_prod_350000_1.final.lmprestart

thermo ${thermotime}
thermo 70000
timestep ${timestep}
timestep 0.003

neighbor 0.5 bin
neigh_modify every 1 delay ${neighborstep} check yes
neigh_modify every 1 delay 25 check yes

#velocity all create ${temp} ${id} dist gaussian
fix 1 all nvt temp ${temp} ${temp} ${taut}
fix 1 all nvt temp 0.65 ${temp} ${taut}
fix 1 all nvt temp 0.65 0.65 ${taut}
fix 1 all nvt temp 0.65 0.65 0.3
Resetting global fix info from restart file:
  fix style: nvt, fix ID: 1

variable steps4 equal ${steps}/4
variable steps4 equal 350000/4
run ${steps4}
run 87500
Generated 0 of 1 mixed pair_coeff terms from geometric mixing rule
All restart file global fix info was re-assigned
Neighbor list info ...
  update: every = 1 steps, delay = 25 steps, check = yes
  max neighbors/atom: 2000, page size: 100000
  master list distance cutoff = 3
  ghost atom cutoff = 3
  binsize = 1.5, bins = 5 5 5
  1 neighbor lists, perpetual/occasional/extra = 1 0 0
  (1) pair lj/cut, perpetual
      attributes: half, newton on
      pair build: half/bin/atomonly/newton
      stencil: half/bin/3d
      bin: standard
Per MPI rank memory allocation (min/avg/max) = 3.137 | 3.139 | 3.14 Mbytes
   Step          Temp          E_pair         E_mol          TotEng         Press     
         0   0.67990738    -6.528309       0             -5.5112809      6.4339682    
     70000   0.60952259    -6.6388524      0             -5.7271082      5.4845517    
     87500   0.68420764    -6.6757782      0             -5.6523176      5.4995321    
Loop time of 9.31945 on 4 procs for 87500 steps with 360 atoms

Performance: 2433619.689 tau/day, 9388.965 timesteps/s, 3.380 Matom-step/s
99.3% CPU use with 4 MPI tasks x 1 OpenMP threads

MPI task timing breakdown:
Section |  min time  |  avg time  |  max time  |%varavg| %total
---------------------------------------------------------------
Pair    | 4.5195     | 4.5864     | 4.662      |   2.8 | 49.21
Neigh   | 0.46552    | 0.47137    | 0.47687    |   0.7 |  5.06
Comm    | 3.5533     | 3.7431     | 3.9583     |   7.6 | 40.16
Output  | 0.049421   | 0.053557   | 0.062138   |   2.2 |  0.57
Modify  | 0.23288    | 0.37879    | 0.51642    |  20.6 |  4.06
Other   |            | 0.08622    |            |       |  0.93

Nlocal:             90 ave          94 max          85 min
Histogram: 1 0 1 0 0 0 0 0 0 2
Nghost:           1237 ave        1248 max        1227 min
Histogram: 2 0 0 0 0 0 0 0 1 1
Neighs:           5195 ave        5506 max        4764 min
Histogram: 1 0 0 0 1 0 0 0 0 2

Total # of neighbors = 20780
Ave neighs/atom = 57.722222
Neighbor list builds = 2749
Dangerous builds = 93
Total wall time: 0:00:09
