ITEM: TIMESTEP
100000
ITEM: NUMBER OF ATOMS
2048
ITEM: BOX BOUNDS pp pp pp
0.0000000000000000e+00 1.2302095357258066e+01
0.0000000000000000e+00 1.2302095357258066e+01
0.0000000000000000e+00 1.2302095357258066e+01
ITEM: ATOMS id type xs ys zs
1353 1 0.653925 0.578667 0.0187581
1333 1 0.47862 0.434031 0.414953
1168 1 0.509149 0.0407943 0.0638643
35 1 0.343806 0.0523632 0.437168
281 1 0.5286 0.323941 9.17294e-05
1456 1 0.687298 0.94303 0.103259
1976 1 0.795583 0.929794 0.13696
261 1 0.131829 0.106736 0.074023
829 1 0.347999 0.684971 0.02302
1415 1 0.376534 0.890391 0.0105567
1533 1 0.306833 0.709612 0.436206
143 1 0.864093 0.1261 0.0712733
1228 1 0.0724507 0.0213634 0.0569243
179 1 0.391829 0.139353 0.149459
358 1 0.378177 0.154506 0.0662632
1000 1 0.281039 0.00393971 0.065235
207 1 0.771507 0.973584 0.431835
227 1 0.912148 0.195416 0.0688018
464 1 0.201181 0.069469 0.0685947
360 1 0.418954 0.0261536 0.448429
827 1 0.0603782 0.771311 0.432804
1490 1 0.700476 0.292338 0.15635
1901 1 0.273615 0.74421 0.130486
1832 1 0.210516 0.246368 0.437266
570 1 0.456362 0.167722 0.00894672
1545 1 0.00743333 0.408567 0.077724
403 1 0.26133 0.220075 0.15351
1535 1 0.323335 0.933353 0.0587802
447 1 0.260417 0.423973 0.43873
178 1 0.890875 0.507729 0.12553
1113 1 0.960442 0.85715 0.0666835
1269 1 0.471229 0.392853 0.0741451
1073 1 0.707539 0.383005 0.072219
284 1 0.200198 0.555267 0.0728399
1282 1 0.430841 0.809851 0.091124
1752 1 0.313428 0.272042 0.200356
522 1 0.0987753 0.326413 0.0534426
1402 1 0.23166 0.269967 0.0206902
1732 1 0.697111 0.240901 0.478005
550 1 0.925025 0.319828 0.114651
1596 1 0.383437 0.526331 0.445424
1758 1 0.629105 0.437368 0.460935
315 1 0.0782163 0.69551 0.442892
1409 1 0.910339 0.872757 0.00188681
234 1 0.170539 0.310675 0.103225
712 1 0.804951 0.280204 0.0531682
1420 1 0.813782 0.531815 0.100288
554 1 0.821982 0.449961 0.0793987
506 1 0.153158 0.263914 0.0468918
1354 1 0.130894 0.709254 0.0462746
1846 1 0.0649298 0.389434 0.0215169
2031 1 0.702078 0.0416649 0.348738
620 1 0.954031 0.41276 0.0215731
1821 1 0.905054 0.0159645 0.45479
133 1 0.0479799 0.493748 0.489313
55 1 0.789057 0.0969746 0.104151
158 1 0.973064 0.326441 0.036592
1754 1 0.568228 0.530494 0.0995249
1273 1 0.715646 0.559453 0.0672857
724 1 0.641328 0.383121 0.0154268
1489 1 0.787157 0.265951 0.469174
1076 1 0.147875 0.850201 0.473882
752 1 0.767851 0.925731 0.0572478
867 1 0.0601388 0.184371 0.493933
809 1 0.247197 0.468927 0.0759446
1781 1 0.422478 0.25614 0.4824
1658 1 0.787658 0.673797 0.0360999
240 1 0.068694 0.49498 0.0839953
1642 1 0.450406 0.245633 0.397513
544 1 0.109229 0.381444 0.17929
1591 1 0.209885 0.662289 0.0290367
2023 1 0.333462 0.403708 0.401159
1785 1 0.706842 0.942234 0.471222
41 1 0.258355 0.815876 0.0449771
1882 1 0.641286 0.608825 0.094302
1516 1 0.0294983 0.457086 0.415521
412 1 0.916263 0.65322 0.111707
1182 1 0.418868 0.448843 0.0672615
787 1 0.393455 0.765015 0.0377122
961 1 0.202304 0.82251 0.104829
286 1 0.323311 0.739541 0.191665
1310 1 0.350287 0.829299 0.0808356
539 1 0.69565 0.701373 0.0469116
1407 1 0.96996 0.662239 0.441768
902 1 0.911354 0.731734 0.0721686
1833 1 0.0986682 0.629104 0.499523
503 1 0.340174 0.382639 0.49304
742 1 0.586406 0.666258 0.103089
1570 1 0.0422679 0.619698 0.437712
948 1 0.171917 0.480503 0.0896334
537 1 0.901469 0.797584 0.0202439
730 1 0.703102 0.914453 0.00357758
851 1 0.490092 0.798486 0.0442232
1255 1 0.101847 0.824612 0.0189004
549 1 0.938413 0.0176879 0.019363
1122 1 0.632236 0.654196 0.0352667
197 1 0.621837 0.747445 0.0648017
795 1 0.329967 0.461834 0.453497
1601 1 0.61673 0.310067 0.0233148
1386 1 0.283487 0.908051 0.130233
852 1 0.436697 0.470881 0.476279
906 1 0.930978 0.482678 0.0512298
797 1 0.0150803 0.848261 0.138826
1685 1 0.308668 0.754761 0.0567892
547 1 0.525112 0.910791 0.157606
681 1 0.56219 0.762944 0.0100335
1391 1 0.569085 0.595228 0.0575531
1031 1 0.701495 0.402637 0.440521
1709 1 0.260805 0.370234 0.373653
1309 1 0.961669 0.409964 0.435652
1130 1 0.0610012 0.890127 -0.00132853
42 1 0.146162 0.608516 0.0470875
1284 1 0.455247 0.94211 0.133886
1525 1 0.579757 0.369153 0.0589269
1878 1 0.718364 0.630437 0.0112032
1275 1 0.127073 0.0285118 0.113196
330 1 0.32381 0.00852628 0.131362
274 1 0.663311 0.0107184 0.0571965
1989 1 0.0889107 0.354222 0.488262
2027 1 0.00138791 0.0736236 0.0601383
1946 1 0.153937 0.200664 0.216776
1186 1 0.506236 0.102414 0.114969
1246 1 0.00119181 0.558599 0.476858
1560 1 0.712278 0.0996484 0.0546033
1276 1 0.938305 0.109661 0.0283403
847 1 0.249921 0.591271 0.0289183
451 1 0.433241 0.0164827 0.028999
1595 1 0.61338 0.584541 0.37183
174 1 0.719234 0.112462 0.13951
1876 1 0.887391 0.278156 0.47611
339 1 0.197689 0.173363 0.139673
203 1 0.321178 0.0764346 0.166715
1890 1 0.502529 0.226249 0.0471952
287 1 0.724322 0.039433 0.422762
1568 1 0.667549 0.162662 0.0921795
1006 1 0.945468 0.952256 0.487998
1050 1 0.116325 0.413651 0.44121
964 1 0.109793 0.191814 0.11175
853 1 0.30783 0.179868 0.0950946
1746 1 0.385537 0.301464 0.0126011
956 1 0.71626 0.613917 0.45627
1780 1 0.764077 0.171825 0.0810083
999 1 0.063249 0.231063 0.221448
1174 1 0.274375 0.143775 0.157675
923 1 0.254407 0.313761 0.0791322
483 1 0.212172 0.24009 0.093448
116 1 0.783992 0.402463 0.468462
1081 1 0.665366 0.304627 0.0879372
168 1 0.794279 0.347142 0.170799
181 1 0.879344 0.347345 0.0548576
1693 1 0.99915 0.170083 0.235665
311 1 0.141233 0.254857 0.15803
1528 1 0.123502 0.45011 0.0323225
1721 1 0.208084 0.541617 0.479912
268 1 0.475715 0.32366 0.139213
1508 1 0.617499 0.247599 0.11813
56 1 0.797034 0.372997 0.0605899
1272 1 0.987925 0.227886 0.18687
917 1 0.465702 0.599365 0.0284311
452 1 0.756903 0.849251 0.0233641
700 1 0.787565 0.517304 0.030531
29 1 0.320197 0.333232 0.0405778
664 1 0.326242 0.33814 0.129887
1634 1 0.539882 0.372149 0.124922
928 1 0.910038 0.419391 0.108795
1241 1 0.997293 0.187198 0.0755646
1224 1 0.282819 0.397826 0.0696772
863 1 0.320801 0.634858 0.214607
1886 1 0.474449 0.431278 0.147143
1037 1 0.595594 0.470928 0.018738
1834 1 0.599663 0.325427 0.124312
1550 1 0.270327 0.516633 0.00314426
1416 1 0.120033 0.390785 0.0911851
579 1 0.329005 0.472905 0.0568064
625 1 0.490035 0.483043 0.0904479
1511 1 0.461984 0.525496 0.149292
1688 1 0.88106 0.266075 0.0473706
1383 1 0.999294 0.528219 0.0575207
618 1 0.424163 0.829875 0.00172037
1943 1 0.538679 0.517161 0.167855
1193 1 0.65279 0.442248 0.0816779
1835 1 0.0121983 0.541292 0.136941
1303 1 0.0681204 0.581267 0.0845438
517 1 0.212399 0.810149 0.185349
1315 1 0.12817 0.533509 0.0505376
672 1 0.16709 0.189908 0.0490478
1437 1 0.354579 0.601964 0.145317
1660 1 0.411813 0.537976 0.0497631
1095 1 0.485491 0.654993 0.09503
1194 1 0.5609 0.441247 0.0882967
793 1 0.784517 0.592241 0.066261
68 1 0.859277 0.805233 0.119792
101 1 0.127173 0.77924 0.0845672
90 1 0.167798 0.748434 0.144568
1436 1 0.216971 0.748035 0.0711495
1289 1 0.564764 0.984387 0.063853
715 1 0.38309 0.660161 0.0855394
1671 1 0.796714 0.0408071 0.036759
1229 1 0.548259 0.662886 0.177203
30 1 0.673844 0.794447 0.132739
1794 1 0.697062 0.538259 0.493895
835 1 0.147664 0.915036 0.199782
813 1 0.141545 0.839951 0.156644
379 1 0.27824 0.831972 0.142733
1607 1 0.496007 0.794526 0.14797
247 1 0.552822 0.837727 0.106254
419 1 0.690913 0.78793 0.0589478
729 1 0.820704 0.796109 0.0490374
1311 1 0.772489 0.481554 0.472098
1963 1 0.984517 0.966059 0.173306
213 1 0.0943347 0.946121 0.0712729
1340 1 0.243896 0.96536 0.169131
615 1 0.430911 0.719445 0.100382
1054 1 0.548439 0.907927 0.07112
500 1 0.107232 0.867877 0.091408
1811 1 0.49192 0.960245 0.204383
1155 1 0.944657 0.240039 0.00633897
912 1 0.539787 0.414723 0.471996
237 1 0.711188 0.181875 0.0213437
1281 1 0.949125 0.924976 0.106562
1047 1 0.00326684 0.980596 0.077022
16 1 0.242801 0.193923 0.0350866
981 1 0.391478 0.973885 0.177128
568 1 0.378699 0.670973 0.450623
713 1 0.867848 0.708256 0.352825
794 1 0.927657 0.999236 0.12281
1893 1 0.0734169 0.0940836 0.126108
1522 1 0.266232 0.0615478 0.116249
764 1 0.432146 0.980756 0.24823
1290 1 0.505811 0.0346604 0.214267
1720 1 0.620149 0.00305439 0.122669
164 1 0.876192 0.399964 0.494645
138 1 0.821491 0.0155149 0.152366
1928 1 0.860736 0.0844414 0.136363
719 1 0.949925 0.101608 0.113758
1404 1 0.172483 0.99965 0.175339
898 1 0.401868 0.0560319 0.116406
245 1 0.252948 0.215335 0.495394
1140 1 0.649117 0.126525 0.172951
1628 1 0.0594121 0.113876 0.219107
1453 1 0.391019 0.0423849 0.215104
1836 1 0.519429 0.130084 0.0410363
93 1 0.649882 0.124274 0.250803
1526 1 0.778147 0.165372 0.167167
108 1 0.87851 0.0400945 0.0699865
673 1 0.0237171 0.329682 0.0962457
162 1 0.3379 0.182389 0.187271
1827 1 0.326801 0.0984295 0.0900192
1830 1 0.652807 0.23351 0.043617
900 1 0.696341 0.262905 0.228395
843 1 0.786457 0.117185 0.0218402
145 1 0.876053 0.16114 0.14554
1966 1 0.957977 0.175788 0.141165
220 1 0.302364 0.471524 0.130367
880 1 0.409333 0.237219 0.0496896
1498 1 0.70765 0.210807 0.167859
1450 1 0.845302 0.188418 0.015989
1062 1 0.0317461 0.161479 0.1561
374 1 0.980927 0.265838 0.091508
1198 1 0.310615 0.255954 0.0407803
633 1 0.548069 0.275827 0.152464
998 1 0.614341 0.27223 0.205548
479 1 0.846444 0.290432 0.122426
1023 1 0.00225584 0.30515 0.180096
1349 1 0.202331 0.265207 0.214375
1606 1 0.314127 0.265471 0.119963
830 1 0.390732 0.242558 0.198904
1851 1 0.562473 0.226274 0.225252
1880 1 0.757357 0.319703 0.104317
474 1 0.0242066 0.384553 0.204294
1514 1 0.228868 0.50708 0.142657
1948 1 0.276601 0.542359 0.0861417
175 1 0.389317 0.474955 0.142782
23 1 0.665792 0.359821 0.142579
69 1 0.685935 0.348702 0.218749
1061 1 0.844577 0.381399 0.117823
2004 1 0.126513 0.525536 0.132019
1375 1 0.14085 0.455618 0.156541
1559 1 0.424122 0.584334 0.111216
1707 1 0.988078 0.144805 0.479954
1345 1 0.603682 0.414104 0.149365
733 1 0.0605426 0.426335 0.139783
1635 1 0.324224 0.605115 0.0737982
1845 1 0.344067 0.561863 0.00981761
651 1 0.380876 0.588678 0.246424
1788 1 0.541266 0.576828 0.328393
1655 1 0.514736 0.531654 0.0253569
1926 1 0.680002 0.432415 0.171034
598 1 0.649341 0.516821 0.0797641
1058 1 0.931135 0.569406 0.098911
1270 1 0.254758 0.763422 0.228134
861 1 0.384318 0.688685 0.224566
106 1 0.449223 0.630377 0.235255
337 1 0.527559 0.615888 0.2478
609 1 0.861721 0.588693 0.136582
953 1 0.0168393 0.59502 0.0191846
1417 1 0.865859 0.571114 0.0538964
771 1 0.0569425 0.646634 0.142393
1434 1 0.241976 0.693627 0.187708
987 1 0.706369 0.588364 0.136598
679 1 1.00092 0.612708 0.0952784
1053 1 0.0984502 0.715106 0.171226
1870 1 0.185673 0.721975 0.237489
1442 1 0.209209 0.678578 0.114098
768 1 0.323984 0.671309 0.137673
123 1 0.42244 0.651801 0.156814
1887 1 0.660052 0.687341 0.116371
1190 1 0.730716 0.724227 0.116621
1357 1 0.130096 0.848643 0.248946
965 1 0.292991 0.837004 0.222579
292 1 0.378285 0.781641 0.239385
1180 1 0.486657 0.715961 0.15848
1546 1 0.0566836 0.727608 0.101186
1868 1 0.279543 0.0546786 0.478598
502 1 0.0331187 0.838755 0.0566996
1127 1 0.132976 0.779205 0.209842
400 1 0.249711 0.814899 0.344378
759 1 0.52528 0.751348 0.0929405
1895 1 0.759604 0.864546 0.163699
1292 1 0.852541 0.87666 0.149676
1663 1 0.877192 0.748928 0.175577
1496 1 0.924956 0.841236 0.135216
1974 1 0.217413 0.886479 0.167409
169 1 0.445294 0.864393 0.151556
865 1 0.54013 0.829514 0.210644
1618 1 0.876469 0.902318 0.0732128
1465 1 0.0788583 0.885075 0.171121
401 1 0.391269 0.892218 0.106429
957 1 0.976352 0.922358 0.0190515
354 1 0.638881 0.850883 0.0640056
504 1 0.0276176 0.9112 0.0971672
738 1 0.176594 0.926551 0.1081
344 1 0.202719 0.00117205 0.105704
660 1 0.211497 0.970133 0.239595
1429 1 0.414599 0.973872 0.328125
1067 1 0.746536 0.036558 0.144444
938 1 0.686434 0.319737 0.476046
1205 1 0.833463 0.945645 0.200992
1300 1 0.00772376 0.0341935 0.133921
1399 1 0.268705 0.952609 0.297481
533 1 0.308583 0.996551 0.214787
1910 1 0.567014 0.0621019 0.142603
1779 1 0.511536 0.159827 0.204074
1536 1 0.598484 0.89427 0.133855
254 1 0.795982 0.0867785 0.18822
1569 1 0.897262 0.98063 0.246229
534 1 0.906882 0.936047 0.178611
1906 1 0.0535012 0.933051 0.230667
257 1 0.249341 0.0551544 0.194144
1158 1 0.578239 0.117455 0.206375
1624 1 0.931764 0.0414777 0.285083
626 1 0.123702 0.147167 0.17592
1572 1 0.182352 0.096486 0.14189
377 1 0.399546 0.0433789 0.293876
703 1 0.449507 0.0844123 0.173932
1445 1 0.453855 0.105035 0.24913
962 1 0.443799 0.0982417 0.0593344
1203 1 0.579063 0.129305 0.105362
1802 1 0.715039 0.0629916 0.220653
1654 1 0.765151 0.00182744 0.214943
532 1 0.915596 0.114387 0.195627
1646 1 0.867787 0.098742 0.264813
1774 1 0.134324 0.262862 0.25966
819 1 0.323098 0.0577648 0.269557
1815 1 0.58502 0.170008 0.27767
1775 1 0.643859 0.0824715 0.102178
1018 1 0.848322 0.232002 0.174858
256 1 0.135061 0.114966 0.248532
40 1 0.165486 0.181155 0.297487
1842 1 0.266626 0.247128 0.360524
1470 1 0.378892 0.215247 0.122705
78 1 0.457024 0.251305 0.112426
223 1 0.782953 0.217604 0.231997
1326 1 0.836619 0.207492 0.0892192
1626 1 0.908581 0.246733 0.126384
222 1 0.955052 0.114653 0.270574
1377 1 0.242807 0.195618 0.239888
1826 1 0.232732 0.309599 0.159931
555 1 0.32323 0.204778 0.264595
1950 1 0.577162 0.211716 0.0610764
334 1 0.761358 0.300423 0.227857
959 1 0.776617 0.254745 0.147215
603 1 0.349661 0.412888 0.104009
1727 1 0.37045 0.353554 0.228101
1259 1 0.465565 0.308865 0.0465182
1142 1 0.640146 0.200468 0.225681
1025 1 0.755633 0.365605 0.287374
1563 1 0.900514 0.326644 0.34703
1253 1 0.927113 0.27929 0.195182
823 1 0.0456799 0.237556 0.131274
1334 1 0.184141 0.383459 0.166751
1501 1 0.203806 0.402489 0.0817485
587 1 0.493361 0.607189 0.171265
1418 1 0.472694 0.473011 0.250703
298 1 0.528218 0.338657 0.207288
1138 1 0.729445 0.485834 0.0852869
1425 1 0.886645 0.373949 0.199638
1679 1 0.354925 0.534705 0.104228
1108 1 0.395004 0.355697 0.0731768
958 1 0.751535 0.405359 0.137457
1359 1 0.814174 0.420481 0.181928
353 1 0.974927 0.477518 0.114274
748 1 0.174387 0.584403 0.15247
1137 1 0.0733453 0.504328 0.190258
1403 1 0.236153 0.533623 0.224912
792 1 0.287671 0.696378 0.253917
781 1 0.503775 0.569538 0.0946849
706 1 0.633846 0.503513 0.227646
1474 1 0.888317 0.458508 0.221065
647 1 0.0753991 0.441912 0.231736
1984 1 0.162809 0.600145 0.234483
1865 1 0.279513 0.680599 0.0698833
893 1 0.621694 0.536684 0.160991
1011 1 0.0969855 0.592096 0.179891
1033 1 0.298916 0.781267 0.287211
1911 1 0.439949 0.728285 0.267637
194 1 0.465438 0.756048 0.371294
38 1 0.564457 0.592535 0.14068
1557 1 0.768182 0.556785 0.16085
1807 1 0.838125 0.653523 0.0918569
1770 1 0.868094 0.642568 0.0192587
1554 1 0.34613 0.715565 0.311676
1176 1 0.451215 0.846223 0.365245
1866 1 0.636251 0.650407 0.186893
1504 1 0.632795 0.720863 0.211944
1059 1 0.976935 0.683395 0.152315
1889 1 0.978494 0.772499 0.0571754
782 1 0.987326 0.694729 0.0716324
1708 1 0.226666 0.889088 0.364987
2034 1 0.419551 0.760676 0.172934
1049 1 0.506986 0.690618 0.254313
1293 1 0.667548 0.795797 0.22458
1627 1 0.768541 0.797756 0.112822
1446 1 0.968691 0.836561 0.335262
1258 1 0.606396 0.77195 0.267775
714 1 0.961969 0.770917 0.133647
856 1 0.222768 0.869877 0.243091
1869 1 0.357948 0.756526 0.124258
219 1 0.551313 0.736089 0.198911
516 1 0.813397 0.794249 0.186505
1937 1 0.975752 0.810886 0.20508
1809 1 0.0218455 0.869772 0.266292
1036 1 0.0934053 0.896115 0.311039
1109 1 0.357047 0.955617 0.262695
765 1 0.488542 0.882833 0.25015
619 1 0.571298 0.0303511 0.269693
1947 1 0.535362 0.983645 0.140118
1691 1 0.686892 0.745866 0.298134
180 1 0.76626 0.914109 0.262062
978 1 0.950983 0.0306857 0.207
1730 1 0.107186 0.958886 0.149463
450 1 0.169786 0.0417364 0.248593
1463 1 0.623856 0.929199 0.0634194
1857 1 0.835954 0.974873 0.0801445
1247 1 0.992289 0.0949542 0.182707
561 1 0.000971703 0.117634 0.372603
159 1 0.117425 0.0582456 0.187334
1756 1 0.135842 0.975619 0.420869
896 1 0.598231 0.96232 0.184577
364 1 0.630964 0.967126 0.282551
246 1 0.982227 0.175582 0.316981
1749 1 0.297131 0.978528 0.449266
1801 1 0.43167 0.175906 0.210516
2018 1 0.642472 0.936973 0.35482
989 1 0.677004 0.992326 0.216406
228 1 0.343411 0.0723166 0.360099
1577 1 0.548152 0.0764425 0.348364
526 1 0.580769 0.150247 0.371741
942 1 0.629178 0.0507101 0.193681
993 1 0.845843 0.159452 0.214091
546 1 0.887847 0.0980755 0.341944
798 1 0.0882112 0.172779 0.281268
586 1 0.212829 0.129253 0.205041
682 1 0.294823 0.129346 0.245216
1170 1 0.374611 0.113402 0.245588
1451 1 0.51916 0.20456 0.121007
538 1 0.654025 0.179363 0.313884
602 1 0.0783638 0.311288 0.15872
488 1 0.264674 0.0810446 0.334624
1900 1 0.338302 0.14657 0.336292
226 1 0.400547 0.201113 0.288421
1304 1 0.490932 0.185483 0.356524
1519 1 0.718359 0.143359 0.212235
1672 1 0.957047 0.250477 0.259575
1994 1 0.0641196 0.407305 0.358655
801 1 0.261414 0.38714 0.144212
413 1 0.285123 0.348802 0.208599
1106 1 0.484138 0.244484 0.193261
209 1 0.715793 0.194535 0.27119
634 1 0.831709 0.298153 0.316209
417 1 0.156225 0.323235 0.208415
1640 1 0.214062 0.245491 0.30077
2038 1 0.358879 0.285589 0.266989
444 1 0.690667 0.321675 0.305455
1384 1 0.146031 0.328361 0.30962
1532 1 0.288892 0.471969 0.212177
1619 1 0.40343 0.367251 0.159715
614 1 0.578188 0.310218 0.263326
22 1 0.691184 0.426754 0.257507
747 1 0.851698 0.303638 0.205761
1699 1 0.959239 0.344115 0.237087
1523 1 0.256756 0.603087 0.13525
824 1 0.548893 0.398792 0.264116
1960 1 0.606536 0.35278 0.203595
1750 1 0.612721 0.43179 0.230917
66 1 0.743951 0.471199 0.193331
1469 1 0.806144 0.50503 0.253751
1698 1 0.483405 0.549973 0.230313
915 1 0.545722 0.500569 0.247876
825 1 0.693217 0.515579 0.155913
2021 1 0.962197 0.382334 0.157525
1151 1 0.0817386 0.589491 0.255018
54 1 0.240276 0.622645 0.22384
1733 1 0.666045 0.513056 0.350585
1805 1 0.680465 0.668218 0.259319
857 1 0.818356 0.50076 0.176865
1199 1 0.951527 0.515468 0.180428
1724 1 0.0236632 0.572312 0.209011
784 1 0.200102 0.613587 0.362869
212 1 0.591028 0.587106 0.21412
1667 1 0.618405 0.565263 0.284151
395 1 0.712939 0.665757 0.178869
698 1 0.173239 0.659718 0.181186
355 1 0.190899 0.655236 0.278912
1338 1 0.230121 0.740371 0.307822
1077 1 0.395469 0.710356 0.373078
465 1 0.482707 0.679241 0.325425
991 1 0.674182 0.578592 0.211391
1789 1 0.905803 0.796808 0.282161
348 1 0.954411 0.594381 0.176858
2006 1 0.0970156 0.741172 0.360302
313 1 0.288547 0.872936 0.298862
21 1 0.371371 0.842517 0.323944
645 1 0.614957 0.712613 0.326327
908 1 0.603498 0.748281 0.144049
968 1 0.817366 0.728187 0.108467
282 1 0.0277213 0.75398 0.185774
1346 1 0.080445 0.799578 0.142148
170 1 0.792141 0.732451 0.479112
264 1 0.159799 0.919565 0.278572
842 1 0.39066 0.869141 0.400866
1051 1 0.431473 0.835042 0.224189
283 1 0.731779 0.772131 0.184236
201 1 0.815113 0.876471 0.219693
140 1 0.883444 0.819179 0.214705
1547 1 0.104483 0.0100664 0.338679
4 1 0.423234 0.910172 0.209201
926 1 0.546909 0.835433 0.290552
1382 1 0.966849 0.891674 0.205564
1700 1 0.0191647 0.917769 0.338679
970 1 0.349151 0.910842 0.167579
744 1 0.610776 0.82104 0.174587
919 1 0.651973 0.910302 0.231394
1825 1 0.00582142 0.0540411 0.251576
370 1 0.115179 0.979174 0.254578
267 1 0.0636288 0.00515334 0.204501
1064 1 0.248895 0.0319901 0.274008
1998 1 0.336165 0.996171 0.329302
1086 1 0.471068 0.807227 0.299702
935 1 0.486011 0.772707 0.225747
875 1 0.567221 0.909245 0.246866
1718 1 0.723336 0.939534 0.175386
649 1 0.789893 0.984551 0.287621
1004 1 0.979255 0.944321 0.259792
459 1 0.20548 0.988526 0.375348
1823 1 0.503886 0.953921 0.284027
1922 1 0.571376 0.935796 0.415231
832 1 0.650287 0.0439117 0.269431
1202 1 0.773373 0.0579012 0.289325
53 1 0.864353 0.000640738 0.315033
1214 1 0.274449 0.0296942 0.392591
657 1 0.489262 0.0360856 0.294596
1743 1 0.716366 0.123526 0.303607
1041 1 0.873437 0.0450923 0.20445
1114 1 0.0305534 0.120355 0.291343
249 1 0.119566 0.112405 0.336842
1177 1 0.215825 0.0803779 0.428003
443 1 0.364569 0.248811 0.411436
1648 1 0.408191 0.125514 0.316094
869 1 0.622452 0.101892 0.322079
1305 1 0.813124 0.201669 0.299905
754 1 0.871295 0.245054 0.263869
1604 1 0.336394 0.172984 0.41161
1467 1 0.341052 0.231564 0.337688
46 1 0.483125 0.16799 0.28095
1482 1 0.539055 0.251996 0.428816
687 1 0.138426 0.132305 0.412437
128 1 0.0331408 0.237718 0.294979
18 1 0.208142 0.1107 0.282379
1227 1 0.289529 0.354513 0.292239
322 1 0.697397 0.112618 0.399956
611 1 0.731174 0.180804 0.357068
1251 1 0.835299 0.179845 0.379219
410 1 0.917977 0.19723 0.219304
983 1 0.142267 0.285024 0.385843
430 1 0.27985 0.275056 0.269573
890 1 0.587151 0.188204 0.16181
976 1 0.685506 0.249565 0.346869
163 1 0.759809 0.324224 0.357601
1369 1 0.751598 0.265708 0.301946
1014 1 0.085844 0.214256 0.418967
1980 1 0.212456 0.308253 0.353925
1549 1 0.358406 0.468505 0.341194
336 1 0.501399 0.280945 0.25829
1280 1 0.752975 0.395417 0.21772
1264 1 0.989661 0.306764 0.310877
670 1 0.220873 0.333535 0.254163
969 1 0.215176 0.401757 0.317336
31 1 0.33862 0.40661 0.181642
927 1 0.334553 0.43398 0.269987
19 1 0.637539 0.371328 0.277963
1872 1 0.823759 0.388469 0.248785
1322 1 0.887757 0.337406 0.265985
1924 1 0.0585807 0.310389 0.24036
2045 1 0.00860798 0.466159 0.203447
1641 1 0.25637 0.411518 0.251462
1015 1 0.627028 0.251913 0.28208
20 1 0.700669 0.506527 0.271258
920 1 0.814046 0.505728 0.376152
1503 1 0.747416 0.560591 0.235884
2048 1 0.938339 0.544057 0.259556
1488 1 0.143737 0.523158 0.223173
1631 1 0.253996 0.664714 0.328401
690 1 0.307301 0.55254 0.184747
352 1 0.398825 0.547043 0.183025
375 1 0.498497 0.514893 0.314004
88 1 0.616155 0.449183 0.307768
1665 1 0.955866 0.421763 0.240957
1065 1 0.876974 0.542841 0.210487
1298 1 0.32508 0.656581 0.380545
1261 1 0.4119 0.631769 0.370573
431 1 0.752426 0.636198 0.267399
1899 1 0.765342 0.445487 0.278808
1279 1 0.0542489 0.602922 0.339928
435 1 0.130292 0.709187 0.297693
47 1 0.484504 0.608865 0.373846
1336 1 0.602482 0.71968 0.420778
1105 1 0.738943 0.720029 0.240154
658 1 0.865296 0.671382 0.168895
1034 1 0.808151 0.615222 0.196492
1147 1 0.196942 0.800196 0.270205
1032 1 0.454292 0.593695 0.300603
135 1 0.758938 0.719394 0.377661
1027 1 0.582511 0.674253 0.26977
273 1 0.057503 0.743975 0.25476
949 1 0.174017 0.78282 0.353466
1471 1 0.319045 0.781407 0.35892
1149 1 0.404503 0.665806 0.299843
1069 1 0.629874 0.799238 0.35451
1912 1 0.0597668 0.816226 0.219841
592 1 0.901113 0.840231 0.419144
202 1 0.240438 0.670702 0.410727
1121 1 0.363901 0.828598 0.161163
1771 1 0.842251 0.75321 0.254745
1678 1 0.897848 0.883613 0.250285
233 1 0.164166 0.851164 0.319598
1662 1 0.281334 0.946566 0.382515
57 1 0.421245 0.899817 0.3007
543 1 0.350998 0.766686 0.465128
446 1 0.534432 0.758242 0.296566
294 1 0.545581 0.797981 0.361933
1161 1 0.82749 0.833286 0.292853
324 1 0.836482 0.908752 0.308014
132 1 0.117086 0.788879 0.296431
225 1 0.0404109 0.992762 0.285123
182 1 0.258821 0.824426 0.42998
1578 1 0.537765 0.719952 0.365886
1839 1 0.690197 0.903334 0.299018
2005 1 0.756696 0.82949 0.243521
1441 1 0.956623 0.96455 0.411178
493 1 0.084228 0.0604178 0.28179
1317 1 0.178309 0.842465 0.40247
617 1 0.285314 0.915872 0.221312
718 1 0.699151 0.825701 0.298254
1538 1 0.762581 0.873144 0.336935
1461 1 0.0356906 0.956644 0.492987
1636 1 0.00461218 0.046181 0.329519
1972 1 0.154316 0.932317 0.351091
1747 1 0.480815 0.113156 0.342841
146 1 0.528629 0.0998186 0.265403
1576 1 0.786322 0.0440286 0.365093
897 1 0.81441 0.117682 0.325105
1397 1 0.115029 0.116766 0.485067
1529 1 0.41154 0.168422 0.460816
28 1 0.428351 0.0461662 0.364565
1588 1 0.592577 0.00593236 0.33993
854 1 0.561102 0.0282652 0.409376
686 1 0.994046 0.203486 0.424361
1981 1 0.853441 0.113236 0.42327
1236 1 0.247385 0.183796 0.401375
134 1 0.447196 0.3271 0.436476
285 1 0.486969 0.306262 0.365388
1030 1 0.714287 0.0874208 0.482976
527 1 0.781178 0.142031 0.258442
204 1 0.891042 0.172865 0.293189
903 1 0.176386 0.212971 0.371146
743 1 0.102974 0.235601 0.330221
584 1 0.285612 0.264457 0.43482
75 1 0.436204 0.942164 -0.00079444
302 1 0.769991 0.182922 0.434896
67 1 0.930686 0.160346 0.377009
103 1 0.975937 0.358797 0.374582
166 1 0.259028 0.16118 0.326851
1555 1 0.404154 0.187906 0.362138
839 1 0.45798 0.246772 0.316772
616 1 0.562665 0.180567 0.446212
1861 1 0.604355 0.223679 0.36705
593 1 0.842374 0.206242 0.474119
1335 1 0.972909 0.238808 0.356286
1256 1 0.0267866 0.282622 0.404164
755 1 0.165432 0.369909 0.387788
148 1 0.548165 0.230907 0.305865
1477 1 0.897727 0.239482 0.333129
769 1 0.0110158 0.396805 0.301652
1257 1 0.928125 0.391665 0.308251
799 1 0.195981 0.478291 0.28057
711 1 0.325991 0.31023 0.351047
309 1 0.390583 0.292707 0.133851
641 1 0.713555 0.42765 0.334122
1381 1 0.822519 0.334619 0.485469
1696 1 0.835387 0.344125 0.390453
1798 1 0.558278 0.284788 0.356147
1035 1 0.589359 0.512448 0.345378
199 1 0.805523 0.399769 0.336506
722 1 0.938455 0.477414 0.303916
1717 1 0.204491 0.462612 0.204379
1 1 0.215329 0.577194 0.290183
342 1 0.275652 0.49357 0.285558
1602 1 0.354955 0.50795 0.236733
671 1 0.501412 0.354401 0.30442
490 1 0.700613 0.497174 0.420156
44 1 0.0232937 0.469724 0.331448
1240 1 0.0881956 0.366016 0.282433
482 1 0.116371 0.553777 0.324041
323 1 0.410801 0.432223 0.20813
870 1 0.515139 0.43237 0.330619
1454 1 0.755967 0.430202 0.396601
359 1 0.827891 0.602567 0.425372
791 1 0.770549 0.567083 0.328967
1644 1 0.926279 0.657409 0.218972
1473 1 0.989717 0.694862 0.276367
1472 1 0.124189 0.634833 0.319912
814 1 0.35328 0.560082 0.315556
418 1 0.522525 0.490228 0.454157
1260 1 0.6954 0.576988 0.298174
91 1 0.972327 0.543539 0.331535
111 1 0.281715 0.590038 0.348016
731 1 0.288251 0.572738 0.265676
1364 1 0.330214 0.631149 0.297672
389 1 0.588402 0.638203 0.443618
1848 1 0.68321 0.738457 0.377753
1209 1 0.741221 0.499139 0.341799
1092 1 0.828233 0.582079 0.273962
1152 1 0.79749 0.711293 0.189533
1590 1 0.110711 0.663835 0.229826
1971 1 0.0419623 0.681376 0.369952
1764 1 0.359707 0.588432 0.409804
1838 1 0.472391 0.685665 0.404447
408 1 0.417073 0.526216 0.287032
481 1 0.566566 0.647067 0.360972
1561 1 0.955785 0.729237 0.213897
588 1 0.984954 0.776066 0.279928
453 1 0.114893 0.632194 0.394986
1863 1 0.539234 0.676644 0.023727
762 1 0.49641 0.795254 0.433848
1620 1 0.834338 0.784441 0.353688
1116 1 0.76249 0.644214 0.123403
937 1 0.944378 0.893708 0.383377
1883 1 0.357568 0.873176 0.249123
1466 1 0.399013 0.771109 0.319401
652 1 0.393045 0.78574 0.401883
930 1 0.770458 0.76951 0.299907
1439 1 0.890589 0.856832 0.337959
872 1 0.968364 0.975296 0.332466
1632 1 0.0811463 0.891074 0.384978
1022 1 0.108028 0.81542 0.388376
716 1 0.908805 0.353678 0.439224
1500 1 0.626542 0.856965 0.295307
859 1 0.684514 0.868245 0.370659
707 1 0.268761 0.907029 0.451034
149 1 0.358658 0.921142 0.351162
2014 1 0.312379 0.866489 0.381332
1099 1 0.562421 0.926318 0.325341
280 1 0.897051 0.949391 0.35409
1115 1 0.0385055 0.993006 0.385067
365 1 0.304175 0.15362 0.00577918
1896 1 0.377499 0.977841 0.401655
1621 1 0.4908 0.994615 0.435367
1564 1 0.601515 0.875116 0.373353
576 1 0.708545 0.991323 0.291181
338 1 0.841449 0.882508 0.395218
1766 1 0.220014 0.00620045 0.461023
509 1 0.544687 0.976932 0.491375
1543 1 0.537783 0.334165 0.479186
1245 1 0.940348 0.0353163 0.376075
221 1 0.945869 0.622483 0.0394671
1100 1 0.183731 0.0506574 0.33078
540 1 0.142859 0.0538825 0.410707
812 1 0.28636 0.111901 0.403516
1706 1 0.762346 0.550266 0.411048
642 1 0.774704 0.112126 0.398691
513 1 0.929881 0.0965476 0.453237
1134 1 0.57605 0.0797736 0.0310602
709 1 0.20256 0.125829 0.363074
343 1 0.282951 0.142664 0.472558
952 1 0.332181 0.214243 0.476294
87 1 0.405187 0.105726 0.411877
1824 1 0.484853 0.156917 0.426018
441 1 0.998098 0.0502006 0.442798
347 1 0.06044 0.166567 0.357694
456 1 0.594252 0.701619 0.497888
837 1 0.177499 0.817642 0.0259001
1087 1 0.502881 0.0453846 0.498369
608 1 0.178056 0.452553 0.384573
878 1 0.942815 0.277655 0.422154
9 1 0.760111 0.430391 0.0222496
1394 1 0.0275616 0.411206 0.495252
195 1 0.342796 0.299264 0.481144
1524 1 0.433654 0.318262 0.28605
368 1 0.781149 0.240869 0.37316
1422 1 0.894799 0.400803 0.375473
351 1 0.354653 0.388505 0.328745
185 1 0.403084 0.286252 0.35363
1810 1 0.689041 0.359335 0.37699
621 1 0.748435 0.331821 0.0124897
1647 1 0.862619 0.266519 0.394469
556 1 0.882791 0.937676 0.436052
1738 1 0.958082 0.498787 0.409304
631 1 0.0837531 0.33859 0.407432
1630 1 0.291628 0.341772 0.447619
1847 1 0.433218 0.310179 0.203728
518 1 0.576598 0.38057 0.336725
941 1 0.633332 0.27343 0.433087
1143 1 0.759723 0.336736 0.435449
628 1 0.998837 0.335716 0.447785
708 1 0.89426 0.484695 0.369547
335 1 0.06798 0.308852 0.337861
515 1 0.0941153 0.485501 0.298021
674 1 0.263199 0.451711 0.357107
1534 1 0.418249 0.418977 0.289605
1908 1 0.611015 0.3536 0.448164
1491 1 0.851237 0.873392 0.471204
1419 1 0.897347 0.467896 0.462996
1107 1 0.95159 0.586157 0.418401
361 1 0.0856327 0.495429 0.37428
1213 1 0.465399 0.381063 0.232922
1645 1 0.652064 0.428155 0.382072
1871 1 0.867994 0.516947 0.306869
1226 1 0.16417 0.550554 0.40443
99 1 0.440426 0.469429 0.341685
894 1 0.516811 0.366719 0.40057
1735 1 0.0186554 0.916083 0.424675
632 1 0.660489 0.749793 0.471425
333 1 0.164075 0.405174 0.250444
886 1 0.489274 0.533722 0.396873
1393 1 0.62133 0.508628 0.416885
141 1 0.689706 0.575541 0.387198
1175 1 0.766473 0.629827 0.385238
2036 1 0.894709 0.565748 0.366334
864 1 0.979354 0.6302 0.350491
772 1 0.998201 0.615555 0.277505
1071 1 0.402592 0.958783 0.0656797
1093 1 0.466972 0.0191395 0.133992
1579 1 0.661723 0.655919 0.405085
297 1 0.850791 0.654394 0.259545
1378 1 0.919669 0.611848 0.305799
936 1 0.0335813 0.679398 0.211868
704 1 0.184044 0.692546 0.355354
373 1 0.293819 0.632671 0.457649
1520 1 0.244034 0.58298 0.421141
1165 1 0.720667 0.694479 0.442252
1850 1 0.715701 0.671076 0.332035
17 1 0.0593538 0.663423 0.289791
749 1 0.176142 0.739003 0.424691
826 1 0.83125 0.985068 0.490741
746 1 0.426976 0.731173 0.462715
113 1 0.725317 0.796825 0.36492
590 1 0.686528 0.459756 0.00532272
1185 1 0.793499 0.693666 0.302381
1909 1 0.643782 0.13272 0.457023
70 1 0.0017258 0.729377 0.464027
1777 1 0.998328 0.828025 0.423373
1605 1 0.233589 0.706153 0.478431
239 1 0.783295 0.918235 0.480316
428 1 0.564398 0.772083 0.473677
1929 1 0.748853 0.903313 0.410258