ITEM: TIMESTEP
100000
ITEM: NUMBER OF ATOMS
2048
ITEM: BOX BOUNDS pp pp pp
0.0000000000000000e+00 1.1950412657485773e+01
0.0000000000000000e+00 1.1950412657485773e+01
0.0000000000000000e+00 1.1950412657485773e+01
ITEM: ATOMS id type xs ys zs
24 1 0.626885 0.0606801 0.0683102
23 1 0.683896 0.000723949 0.0663992
38 1 0.196923 0.189933 0.00999757
799 1 0.944575 0.00317457 0.425437
1018 1 0.744814 0.953895 0.437674
250 1 0.81084 0.934775 0.00507532
226 1 0.0703134 0.9348 0.00269877
1265 1 0.494464 0.874541 0.485805
105 1 0.262724 0.371955 0.00043234
1137 1 0.498792 0.384179 0.493167
1016 1 0.636609 0.939805 0.44012
1012 1 0.488601 0.93676 0.441927
234 1 0.316814 0.938522 0.00509463
1088 1 0.878727 0.242124 0.499348
114 1 0.553279 0.435415 0.0157039
10 1 0.322699 0.0628089 0.00745586
56 1 0.619772 0.188315 0.0714826
143 1 0.43362 0.448627 0.000385524
270 1 0.439587 0.0642101 0.00687966
106 1 0.321903 0.43894 0.00504783
209 1 0.490639 0.74643 0.00553682
9 1 0.261568 0.001575 0.00522534
1226 1 0.316505 0.805784 0.485143
121 1 0.742391 0.373414 0.00796291
1054 1 0.945553 0.0535533 0.497205
57 1 0.745691 0.115134 0.0066144
241 1 0.499979 0.863406 0.0044761
76 1 0.247246 0.321052 0.0641435
1057 1 0.999306 0.121351 0.496647
245 1 0.62082 0.872711 0.0018045
1073 1 0.488377 0.128471 0.486256
1133 1 0.368316 0.378745 0.493615
1201 1 0.494674 0.624368 0.488121
1041 1 0.511644 0.992822 0.495067
1149 1 0.877989 0.369713 0.494681
1070 1 0.433361 0.188676 0.495143
127 1 0.937897 0.375676 0.0496597
908 1 0.254709 0.628998 0.499999
1019 1 0.821926 0.873083 0.456842
1237 1 0.623613 0.756418 0.501085
1198 1 0.435702 0.690426 0.496369
149 1 0.619462 0.484333 0.0122286
124 1 0.75523 0.455819 0.0509275
18 1 0.566978 0.0648051 0.0106841
1261 1 0.373516 0.865356 0.498148
1270 1 0.687898 0.874683 0.435331
139 1 0.318881 0.51161 0.0690264
1033 1 0.255048 0.996102 0.493145
1233 1 0.495138 0.752906 0.498321
117 1 0.619854 0.380839 0.0206001
1030 1 0.184902 0.0461469 0.489592
911 1 0.441651 0.442942 0.500075
91 1 0.752663 0.257429 0.00693871
1007 1 0.42961 0.871171 0.436149
175 1 0.43941 0.629039 0.05368
1150 1 0.954838 0.432139 0.498684
1113 1 0.756639 0.254216 0.49514
206 1 0.434772 0.809395 0.00459665
58 1 0.81256 0.183958 0.000799192
1003 1 0.302025 0.866086 0.428643
49 1 0.499997 0.129086 0.00653307
13 1 0.387121 0.000654081 0.00790331
1114 1 0.828824 0.303041 0.494485
935 1 0.180275 0.623739 0.440154
1177 1 0.745505 0.496987 0.497907
211 1 0.551381 0.744189 0.0656099
249 1 0.763271 0.868651 0.00254825
1161 1 0.254234 0.556045 0.428467
55 1 0.687681 0.0608338 0.0103439
150 1 0.678527 0.550224 0.0104099
1174 1 0.688211 0.554993 0.494241
86 1 0.688524 0.313964 0.0169101
137 1 0.253627 0.481459 0.02689
74 1 0.32714 0.31892 0.00402569
951 1 0.690859 0.624952 0.444434
82 1 0.558975 0.323479 0.0083244
145 1 0.503986 0.511147 0.00616402
978 1 0.486704 0.805997 0.432919
1254 1 0.174745 0.941053 0.493901
1173 1 0.621916 0.497734 0.499438
244 1 0.502628 0.933973 0.06102
1069 1 0.360354 0.116697 0.489523
228 1 0.00847345 0.928112 0.0689368
1278 1 0.942274 0.943029 0.491238
11 1 0.315412 0.99748 0.0677881
1110 1 0.687447 0.305227 0.489722
281 1 0.805467 1.00076 0.0692813
3 1 0.0673792 0.984034 0.0672283
7 1 0.195244 0.0043089 0.064853
12 1 0.25612 0.063131 0.065541
14 1 0.499682 0.0557798 0.0695908
8 1 0.135783 0.0608671 0.0751483
16 1 0.378832 0.0538343 0.0723864
29 1 0.743653 0.0569628 0.0760074
32 1 0.882429 0.0688973 0.0655119
4 1 0.00984979 0.073078 0.0560893
35 1 0.079977 0.130938 0.0520642
39 1 0.194945 0.127674 0.0668169
43 1 0.314924 0.125175 0.0656392
47 1 0.440415 0.120106 0.0708962
51 1 0.561815 0.113189 0.0750806
27 1 0.69004 0.130711 0.0684377
28 1 0.81242 0.12102 0.0690979
63 1 0.945933 0.124964 0.0695979
40 1 0.127687 0.195311 0.05281
44 1 0.25638 0.190423 0.0613434
48 1 0.372122 0.189511 0.0578279
52 1 0.492345 0.190268 0.0677556
60 1 0.762202 0.187555 0.068188
93 1 0.873814 0.176343 0.0613055
36 1 0.0105877 0.178489 0.0578429
67 1 0.058965 0.246784 0.0610562
71 1 0.177565 0.257224 0.0513246
75 1 0.314415 0.258581 0.0682485
79 1 0.441445 0.252009 0.0697456
83 1 0.554807 0.253941 0.0736021
87 1 0.68579 0.249637 0.0679373
64 1 0.822202 0.243985 0.0597555
609 1 0.923515 0.251922 0.0607484
72 1 0.12095 0.313182 0.0678653
330 1 0.309393 0.318192 0.126023
80 1 0.381442 0.307018 0.0637053
84 1 0.504981 0.317393 0.0716744
88 1 0.609908 0.307346 0.0686942
92 1 0.743322 0.304486 0.0808406
96 1 0.869198 0.32927 0.0604856
68 1 0.99477 0.317474 0.0514279
99 1 0.0617522 0.371614 0.0595612
135 1 0.182133 0.366512 0.0615079
107 1 0.310807 0.377013 0.0664185
110 1 0.437129 0.36955 0.0595934
115 1 0.557381 0.379702 0.0856088
119 1 0.691672 0.371058 0.0791593
123 1 0.795876 0.372474 0.0665209
108 1 0.239989 0.418412 0.0696597
112 1 0.368177 0.440615 0.0741431
120 1 0.614451 0.437412 0.0803492
128 1 0.87284 0.426397 0.0555376
104 1 0.116026 0.437593 0.0613068
140 1 0.17992 0.49825 0.0570242
116 1 0.486279 0.440455 0.0712647
151 1 0.690564 0.494177 0.0824346
155 1 0.8253 0.491036 0.0495468
159 1 0.939952 0.494655 0.0584336
100 1 0.996763 0.433664 0.0629385
132 1 0.00419786 0.573905 0.0726117
131 1 0.0511605 0.505416 0.0685744
394 1 0.238571 0.571861 0.0410613
401 1 0.432503 0.510481 0.0598731
147 1 0.549243 0.506978 0.0777799
152 1 0.61256 0.558809 0.0693255
136 1 0.110294 0.56817 0.0661719
144 1 0.373712 0.57787 0.061221
148 1 0.49944 0.571882 0.0710495
156 1 0.758216 0.564727 0.0620246
160 1 0.884453 0.560478 0.0640683
163 1 0.060533 0.64533 0.0681716
167 1 0.164499 0.623789 0.0536515
171 1 0.309202 0.631297 0.0604546
179 1 0.570006 0.62373 0.049028
183 1 0.685711 0.626413 0.0581066
187 1 0.821936 0.611988 0.0675529
191 1 0.943498 0.631599 0.0517126
168 1 0.124839 0.697645 0.0594153
172 1 0.249823 0.702128 0.0566904
176 1 0.371397 0.691406 0.0618285
433 1 0.500312 0.68147 0.063763
213 1 0.628115 0.693356 0.05654
188 1 0.760571 0.671844 0.0706756
192 1 0.871161 0.688704 0.0691695
164 1 0.990155 0.696124 0.0508758
195 1 0.0606651 0.754152 0.0546115
199 1 0.191724 0.757451 0.0579085
203 1 0.308602 0.765642 0.0556716
180 1 0.439659 0.749473 0.071226
215 1 0.694248 0.747663 0.0719103
219 1 0.803934 0.744939 0.0722976
223 1 0.940359 0.757895 0.0555537
200 1 0.124638 0.811055 0.0701241
204 1 0.245077 0.813405 0.0672831
208 1 0.37634 0.812077 0.0626479
212 1 0.496129 0.808267 0.0629298
216 1 0.622953 0.802179 0.0571527
220 1 0.755833 0.809191 0.0634091
224 1 0.863306 0.806375 0.0668744
196 1 0.00268402 0.806046 0.0506209
227 1 0.0657799 0.871762 0.0578613
231 1 0.191986 0.876868 0.0633746
235 1 0.312608 0.866617 0.065921
239 1 0.431332 0.880218 0.075649
243 1 0.562171 0.865246 0.0612535
247 1 0.689591 0.858137 0.0579667
474 1 0.820285 0.872501 0.0700414
255 1 0.934025 0.871041 0.0507052
232 1 0.136109 0.937575 0.0623826
236 1 0.251479 0.937523 0.0600692
240 1 0.369469 0.928275 0.0739064
494 1 0.439327 0.93558 0.13053
248 1 0.635062 0.93207 0.0588452
246 1 0.751968 0.92871 0.0597042
256 1 0.879644 0.932739 0.0553177
15 1 0.442599 0.995285 0.0663318
19 1 0.565369 0.998851 0.0577285
277 1 0.625539 0.996132 0.127544
31 1 0.943556 0.00171951 0.0651065
261 1 0.128725 0.993649 0.118925
262 1 0.198888 0.0722805 0.123338
266 1 0.309775 0.067971 0.119291
276 1 0.441726 0.0662183 0.127634
20 1 0.551003 0.0534947 0.137325
252 1 0.751588 0.00362192 0.130832
317 1 0.81482 0.0571741 0.120976
258 1 0.0642476 0.0496474 0.121529
278 1 0.685515 0.0627583 0.136132
286 1 0.941346 0.0648606 0.127538
293 1 0.128009 0.135373 0.120344
297 1 0.259302 0.127593 0.117433
301 1 0.366679 0.126125 0.132877
305 1 0.49706 0.132333 0.126686
309 1 0.618485 0.133854 0.132624
313 1 0.745165 0.12013 0.132266
59 1 0.884183 0.121254 0.129851
289 1 0.0192826 0.123459 0.114714
290 1 0.0704536 0.188681 0.118261
294 1 0.189036 0.191757 0.11011
298 1 0.313621 0.185211 0.118751
302 1 0.426135 0.19066 0.118127
306 1 0.561095 0.190102 0.124364
310 1 0.691745 0.190181 0.13569
314 1 0.819205 0.18274 0.13098
318 1 0.940697 0.188919 0.124098
325 1 0.128825 0.246465 0.116309
329 1 0.256696 0.242194 0.128019
333 1 0.370913 0.257682 0.126385
337 1 0.494962 0.255733 0.131001
341 1 0.629565 0.244497 0.128617
345 1 0.759975 0.244729 0.128685
349 1 0.87555 0.249438 0.128614
321 1 0.987443 0.253604 0.10807
322 1 0.053146 0.30657 0.112808
103 1 0.182797 0.307427 0.119607
334 1 0.435151 0.310211 0.128268
338 1 0.565402 0.298972 0.138904
342 1 0.679932 0.314259 0.127593
346 1 0.819901 0.308869 0.130026
350 1 0.92266 0.314663 0.119685
357 1 0.119777 0.383168 0.12435
361 1 0.239629 0.366274 0.132214
365 1 0.374273 0.369659 0.116601
369 1 0.483427 0.376711 0.12439
373 1 0.623164 0.374457 0.128262
377 1 0.755981 0.368839 0.135391
352 1 0.86382 0.378532 0.125782
353 1 0.993066 0.366657 0.125108
358 1 0.172028 0.445342 0.120033
111 1 0.426256 0.441164 0.134891
370 1 0.561147 0.440974 0.140532
374 1 0.674083 0.436388 0.135122
378 1 0.813843 0.443207 0.121604
381 1 0.932597 0.426848 0.114514
354 1 0.0522857 0.434046 0.123118
362 1 0.302596 0.450475 0.122939
405 1 0.627164 0.502652 0.128134
385 1 0.988309 0.490765 0.127539
389 1 0.116054 0.499104 0.114848
393 1 0.247777 0.507698 0.115527
366 1 0.312315 0.571379 0.118167
397 1 0.379755 0.508757 0.123164
403 1 0.477357 0.505092 0.128359
409 1 0.760755 0.507573 0.117791
413 1 0.881861 0.488205 0.130517
386 1 0.0488934 0.574942 0.13813
390 1 0.186586 0.559687 0.121959
425 1 0.248901 0.634087 0.117964
398 1 0.435861 0.576265 0.124329
402 1 0.561447 0.568814 0.144639
406 1 0.691491 0.566395 0.12064
410 1 0.826418 0.555936 0.128434
414 1 0.940884 0.574198 0.123199
417 1 0.00373638 0.645273 0.129191
421 1 0.118371 0.628237 0.126654
429 1 0.373976 0.632282 0.125654
689 1 0.508236 0.63128 0.139889
437 1 0.616624 0.628311 0.127689
441 1 0.7598 0.6194 0.129489
445 1 0.882539 0.628156 0.121655
418 1 0.0686901 0.709564 0.11989
422 1 0.184679 0.688254 0.123912
426 1 0.310601 0.683552 0.125752
430 1 0.438069 0.684468 0.124069
184 1 0.559423 0.691568 0.129405
438 1 0.686316 0.682485 0.119748
442 1 0.815766 0.677653 0.128603
446 1 0.938176 0.697591 0.120539
453 1 0.137364 0.751566 0.127061
457 1 0.247615 0.752967 0.124351
207 1 0.381661 0.752395 0.127656
465 1 0.498134 0.748068 0.123804
472 1 0.622239 0.747279 0.118329
470 1 0.750664 0.739164 0.137284
477 1 0.87969 0.756146 0.133378
449 1 0.994531 0.762665 0.121598
450 1 0.0620509 0.809817 0.124989
454 1 0.186002 0.817893 0.121817
458 1 0.306983 0.80539 0.125362
462 1 0.444943 0.818251 0.127371
466 1 0.57053 0.80382 0.124547
469 1 0.683027 0.816789 0.125615
473 1 0.798061 0.805494 0.136223
478 1 0.940276 0.822733 0.113479
481 1 0.00466798 0.870108 0.126651
485 1 0.126761 0.874806 0.120321
489 1 0.247526 0.870654 0.123873
493 1 0.36739 0.858807 0.13267
497 1 0.505855 0.867505 0.129169
501 1 0.627262 0.873763 0.115268
505 1 0.751728 0.874219 0.120488
509 1 0.871653 0.866819 0.133529
486 1 0.194221 0.929337 0.124265
490 1 0.306208 0.938174 0.122047
498 1 0.5621 0.9253 0.122081
502 1 0.685023 0.93055 0.125389
510 1 0.939453 0.939935 0.11478
482 1 0.0579726 0.931885 0.12865
265 1 0.242388 0.00520348 0.124675
269 1 0.37405 0.99257 0.126941
273 1 0.503996 0.990507 0.122832
506 1 0.807825 0.933635 0.122598
285 1 0.866257 0.989654 0.118005
257 1 0.00758945 0.994324 0.12278
259 1 0.0649324 0.996481 0.184315
264 1 0.12941 0.0517833 0.184368
268 1 0.254416 0.0559696 0.189035
274 1 0.497325 0.0562724 0.197017
280 1 0.625158 0.0604633 0.191702
283 1 0.812695 0.000666575 0.187954
288 1 0.876203 0.0530777 0.176069
272 1 0.371374 0.057036 0.179952
284 1 0.74705 0.0560152 0.190107
260 1 0.998982 0.0531454 0.182114
291 1 0.075316 0.116031 0.178451
295 1 0.201961 0.125487 0.183808
299 1 0.317555 0.12601 0.198275
561 1 0.435249 0.128798 0.185771
307 1 0.555933 0.126952 0.193734
311 1 0.691217 0.122456 0.196624
282 1 0.812586 0.112938 0.184874
319 1 0.942178 0.12858 0.185228
296 1 0.126435 0.192167 0.179198
300 1 0.256356 0.182295 0.182283
303 1 0.371236 0.186368 0.189342
308 1 0.490122 0.190183 0.180809
312 1 0.628082 0.1947 0.191625
316 1 0.759893 0.177387 0.195434
320 1 0.878647 0.17717 0.195917
292 1 0.00609286 0.195822 0.186914
323 1 0.0685777 0.252823 0.18369
327 1 0.192973 0.235449 0.175256
304 1 0.315431 0.249037 0.181064
335 1 0.435954 0.250259 0.185164
339 1 0.554225 0.244353 0.193674
343 1 0.695889 0.244932 0.191859
347 1 0.817704 0.232327 0.195391
351 1 0.940259 0.23723 0.191936
324 1 0.99528 0.299429 0.187166
328 1 0.117986 0.314638 0.174383
332 1 0.248475 0.305553 0.186674
336 1 0.366698 0.312179 0.186683
340 1 0.494021 0.316178 0.182179
344 1 0.628039 0.30521 0.19218
348 1 0.757641 0.303691 0.184919
605 1 0.877277 0.298384 0.188951
355 1 0.0516762 0.371696 0.186204
326 1 0.173905 0.368925 0.184704
331 1 0.308699 0.365077 0.191983
367 1 0.434967 0.368632 0.194208
371 1 0.554649 0.375214 0.186752
375 1 0.692728 0.37973 0.19194
379 1 0.822246 0.363931 0.193445
383 1 0.931041 0.370465 0.185961
360 1 0.113629 0.440443 0.192335
364 1 0.24201 0.430689 0.172962
368 1 0.36012 0.447097 0.190645
372 1 0.487655 0.438615 0.186114
376 1 0.624452 0.432751 0.196012
380 1 0.747313 0.438883 0.176176
384 1 0.871843 0.434145 0.202547
356 1 0.991762 0.428109 0.183289
387 1 0.0525753 0.493939 0.183403
399 1 0.426956 0.500398 0.195637
661 1 0.570669 0.508309 0.199615
388 1 0.987449 0.548071 0.188981
391 1 0.185738 0.494861 0.179919
395 1 0.313968 0.510648 0.177274
407 1 0.68335 0.494687 0.191275
411 1 0.812202 0.498405 0.186682
415 1 0.93209 0.484476 0.193946
392 1 0.122714 0.54195 0.190345
396 1 0.248347 0.561478 0.172844
400 1 0.372023 0.565674 0.184175
404 1 0.494147 0.561328 0.18233
408 1 0.632533 0.559711 0.188279
412 1 0.747016 0.559219 0.194534
416 1 0.882283 0.567568 0.188065
419 1 0.049637 0.629373 0.192902
423 1 0.175537 0.615614 0.183604
427 1 0.302892 0.626165 0.180205
431 1 0.427533 0.635916 0.195642
435 1 0.563162 0.63069 0.202447
439 1 0.680421 0.622924 0.177736
443 1 0.818648 0.622212 0.185883
447 1 0.942512 0.628435 0.179594
424 1 0.124196 0.686473 0.186243
428 1 0.250646 0.689763 0.195308
432 1 0.372622 0.691266 0.191501
434 1 0.504334 0.689513 0.201392
440 1 0.616911 0.68665 0.185372
444 1 0.74323 0.676898 0.187587
448 1 0.878722 0.679256 0.199857
420 1 0.998486 0.690172 0.196798
451 1 0.0608795 0.746639 0.189277
455 1 0.187158 0.739784 0.192841
459 1 0.308041 0.744757 0.178218
436 1 0.440293 0.752376 0.195926
467 1 0.567409 0.75026 0.193449
471 1 0.671732 0.744921 0.183716
475 1 0.807501 0.743662 0.195504
479 1 0.945981 0.754882 0.182714
456 1 0.12675 0.80864 0.185143
460 1 0.249778 0.802361 0.188432
461 1 0.377304 0.810254 0.198571
468 1 0.499828 0.812282 0.189255
726 1 0.624268 0.81209 0.183336
476 1 0.742212 0.803845 0.196964
480 1 0.878234 0.805798 0.193872
452 1 0.00475438 0.811565 0.186283
483 1 0.065896 0.865741 0.185335
487 1 0.188499 0.875638 0.18669
491 1 0.303752 0.873504 0.182998
495 1 0.445562 0.873494 0.188924
499 1 0.571358 0.870929 0.186712
503 1 0.691413 0.872133 0.183818
507 1 0.818042 0.890861 0.189321
511 1 0.940475 0.864547 0.183114
484 1 0.000490964 0.917548 0.193106
488 1 0.127644 0.932615 0.180217
492 1 0.251736 0.945405 0.187587
496 1 0.370617 0.929673 0.184775
500 1 0.505202 0.938662 0.18964
504 1 0.625624 0.930542 0.178185
762 1 0.754016 0.944979 0.19197
512 1 0.886549 0.938239 0.175392
263 1 0.18969 0.00403295 0.191463
267 1 0.318979 0.998477 0.193035
271 1 0.43562 0.994419 0.186667
275 1 0.568765 0.993804 0.188899
279 1 0.688127 1.00036 0.190072
287 1 0.954893 0.9823 0.180205
529 1 0.510772 0.995936 0.249453
533 1 0.621358 0.99697 0.253459
541 1 0.885426 0.990205 0.237902
514 1 0.0696313 0.0601934 0.240804
518 1 0.188105 0.0640026 0.250804
522 1 0.312784 0.0571335 0.254325
526 1 0.44009 0.0767002 0.247004
530 1 0.561991 0.0715879 0.252204
534 1 0.68171 0.0531841 0.248071
538 1 0.810017 0.0692853 0.254419
542 1 0.943812 0.046993 0.237814
545 1 0.00752473 0.114245 0.238251
549 1 0.138287 0.126549 0.233273
553 1 0.258629 0.120013 0.252787
557 1 0.371603 0.127009 0.262903
564 1 0.498572 0.129543 0.255116
565 1 0.623081 0.133783 0.250001
569 1 0.746448 0.121468 0.254932
573 1 0.882482 0.109763 0.242309
546 1 0.0562816 0.17602 0.241472
550 1 0.191834 0.189336 0.244815
554 1 0.317898 0.195668 0.262755
558 1 0.435445 0.196003 0.24948
562 1 0.56671 0.189851 0.252584
566 1 0.688989 0.186133 0.251847
315 1 0.823423 0.173457 0.254416
574 1 0.939661 0.174788 0.250058
581 1 0.122161 0.247065 0.245551
585 1 0.248717 0.243899 0.250381
589 1 0.370219 0.256134 0.247378
593 1 0.507534 0.247555 0.25498
597 1 0.636497 0.248217 0.252761
601 1 0.758159 0.23612 0.250238
570 1 0.878574 0.244234 0.255028
577 1 0.99241 0.245094 0.25619
578 1 0.056294 0.305045 0.249114
582 1 0.179974 0.304977 0.228245
586 1 0.306628 0.307901 0.244445
590 1 0.439139 0.30897 0.243187
594 1 0.567085 0.316098 0.244811
598 1 0.694888 0.306023 0.247808
602 1 0.819445 0.299923 0.245724
606 1 0.935361 0.303089 0.241049
613 1 0.106177 0.373514 0.249293
617 1 0.238119 0.373339 0.230647
621 1 0.376971 0.371247 0.250915
627 1 0.500148 0.379992 0.248248
629 1 0.638109 0.361693 0.254878
633 1 0.750363 0.367819 0.250285
637 1 0.878051 0.359589 0.252244
641 1 1.0014 0.365708 0.244958
614 1 0.179464 0.42974 0.243347
363 1 0.303079 0.420635 0.248974
625 1 0.4331 0.432595 0.245034
626 1 0.561075 0.439157 0.244223
630 1 0.692568 0.431337 0.251799
634 1 0.799008 0.433907 0.241614
638 1 0.945138 0.432814 0.252452
359 1 0.0553023 0.434579 0.247738
645 1 0.125107 0.491996 0.257226
657 1 0.495243 0.48683 0.261673
691 1 0.628156 0.496214 0.25941
669 1 0.871279 0.505507 0.24188
382 1 -0.00159805 0.499017 0.252172
642 1 0.0595067 0.544466 0.24692
649 1 0.248094 0.48009 0.241174
618 1 0.363622 0.514329 0.245177
665 1 0.749482 0.493887 0.24654
646 1 0.19073 0.547913 0.24858
650 1 0.30314 0.561985 0.24366
654 1 0.440019 0.560682 0.248093
658 1 0.574086 0.564212 0.255051
662 1 0.692333 0.560036 0.255902
666 1 0.805684 0.567345 0.246072
670 1 0.932582 0.560781 0.266997
673 1 0.997421 0.626271 0.25685
677 1 0.112838 0.612771 0.248725
681 1 0.243272 0.621671 0.237432
685 1 0.366212 0.616978 0.245695
687 1 0.501202 0.614893 0.249424
693 1 0.635226 0.63923 0.24961
697 1 0.748257 0.622667 0.245332
701 1 0.868138 0.624578 0.255439
674 1 0.0544476 0.687078 0.255509
678 1 0.180908 0.677891 0.24496
682 1 0.308696 0.681057 0.252513
686 1 0.437981 0.677722 0.263409
690 1 0.559088 0.69236 0.259764
694 1 0.694306 0.699493 0.250109
698 1 0.811977 0.677939 0.250849
702 1 0.943107 0.684671 0.25444
709 1 0.115453 0.749841 0.250036
711 1 0.249938 0.743486 0.253804
717 1 0.379203 0.748901 0.25085
721 1 0.507101 0.755373 0.250774
725 1 0.618619 0.754828 0.259705
729 1 0.755654 0.751915 0.258132
733 1 0.879467 0.741007 0.252255
705 1 0.00391326 0.752937 0.249792
706 1 0.0590142 0.809373 0.252206
710 1 0.182724 0.805351 0.247501
713 1 0.305369 0.810204 0.244919
463 1 0.425666 0.812607 0.26566
722 1 0.561668 0.822455 0.248649
732 1 0.691995 0.813292 0.262886
730 1 0.811987 0.810707 0.255393
734 1 0.941044 0.805377 0.249067
737 1 0.995189 0.869477 0.25616
741 1 0.125326 0.862732 0.247398
745 1 0.24183 0.862093 0.244304
464 1 0.369281 0.868667 0.25516
753 1 0.497729 0.876336 0.248328
757 1 0.641542 0.869615 0.247393
761 1 0.75064 0.868129 0.246371
765 1 0.879543 0.874347 0.245167
738 1 0.0657474 0.938276 0.238284
742 1 0.192131 0.940215 0.243159
746 1 0.307268 0.934052 0.244718
750 1 0.429837 0.922148 0.262843
754 1 0.568782 0.937288 0.251676
758 1 0.680273 0.941319 0.242144
539 1 0.82072 0.942623 0.257284
766 1 0.936051 0.931024 0.25695
513 1 0.00606162 0.987963 0.247742
517 1 0.126162 0.994519 0.241418
521 1 0.251356 0.998626 0.248074
525 1 0.385333 0.0109339 0.250514
508 1 0.755786 0.000311338 0.255556
520 1 0.123824 0.0601864 0.299972
519 1 0.189892 0.99441 0.309211
752 1 0.313207 0.999138 0.313112
527 1 0.436018 0.996357 0.321392
531 1 0.558424 0.0147329 0.31669
540 1 0.81046 0.0076427 0.318638
543 1 0.930934 0.997171 0.306138
516 1 0.00912665 0.0511196 0.297187
551 1 0.194669 0.129051 0.308599
524 1 0.246994 0.0598362 0.306434
528 1 0.372357 0.0619254 0.314331
790 1 0.491313 0.0642574 0.312039
796 1 0.631556 0.0570131 0.320567
535 1 0.749507 0.0645611 0.311308
544 1 0.866879 0.0600233 0.318455
547 1 0.0617465 0.116799 0.305063
555 1 0.302011 0.130997 0.318648
559 1 0.43945 0.129111 0.319989
563 1 0.56619 0.120958 0.319692
567 1 0.685899 0.118201 0.305852
571 1 0.811353 0.118624 0.319326
575 1 0.949751 0.104211 0.289706
802 1 0.00193231 0.178326 0.300733
552 1 0.132551 0.182099 0.304233
556 1 0.244537 0.194082 0.314175
560 1 0.387536 0.191676 0.316374
817 1 0.499745 0.186076 0.309859
568 1 0.639166 0.182952 0.31746
572 1 0.755298 0.178092 0.311133
576 1 0.87817 0.176957 0.305961
579 1 0.0574915 0.246758 0.310728
583 1 0.183132 0.250172 0.301215
587 1 0.312631 0.261933 0.31154
591 1 0.437876 0.257192 0.314265
595 1 0.56393 0.238975 0.313657
599 1 0.696358 0.245511 0.314571
603 1 0.814965 0.242252 0.305649
607 1 0.946179 0.240909 0.326243
584 1 0.115301 0.301088 0.3079
588 1 0.232986 0.319331 0.29717
592 1 0.374196 0.315926 0.309817
596 1 0.508283 0.313554 0.309608
600 1 0.62654 0.306273 0.312666
604 1 0.754836 0.299595 0.302372
608 1 0.896597 0.308012 0.31771
580 1 0.9935 0.313144 0.309934
610 1 0.0535508 0.370485 0.313168
615 1 0.180906 0.379122 0.304364
619 1 0.300673 0.362828 0.306353
623 1 0.441126 0.362409 0.305873
882 1 0.567357 0.375964 0.305705
631 1 0.701575 0.365096 0.312413
635 1 0.810342 0.371874 0.30533
639 1 0.924458 0.382353 0.315796
612 1 -0.000435004 0.438882 0.30657
616 1 0.121289 0.432656 0.311209
624 1 0.378909 0.424501 0.318948
622 1 0.504633 0.425784 0.319209
632 1 0.631019 0.43104 0.306542
640 1 0.874696 0.435417 0.293559
643 1 0.065059 0.493552 0.311279
647 1 0.185685 0.498429 0.317256
620 1 0.240773 0.431049 0.31159
655 1 0.424161 0.491391 0.304231
659 1 0.565664 0.492953 0.311407
636 1 0.756927 0.439119 0.312031
671 1 0.937827 0.490671 0.310271
644 1 0.00430591 0.547664 0.316897
651 1 0.315677 0.500167 0.311777
664 1 0.63505 0.564697 0.314439
663 1 0.685538 0.482487 0.309717
667 1 0.814659 0.499434 0.29589
648 1 0.125596 0.560453 0.317185
652 1 0.250978 0.549942 0.313943
653 1 0.377811 0.56522 0.305277
660 1 0.510876 0.552805 0.31401
668 1 0.757175 0.563729 0.312523
672 1 0.864362 0.563333 0.314249
675 1 0.0658456 0.619322 0.316348
679 1 0.198057 0.61104 0.305344
683 1 0.302968 0.612448 0.321657
656 1 0.444768 0.614233 0.316289
692 1 0.579955 0.633695 0.31413
695 1 0.692008 0.623048 0.318295
699 1 0.804167 0.627302 0.312527
703 1 0.928829 0.62683 0.311675
676 1 0.00431537 0.701789 0.321707
680 1 0.132039 0.659521 0.310908
684 1 0.250909 0.692772 0.31766
688 1 0.365378 0.68544 0.313476
719 1 0.501642 0.677076 0.318515
696 1 0.638664 0.694727 0.314335
700 1 0.747981 0.69772 0.323398
704 1 0.867852 0.691186 0.314377
707 1 0.0688341 0.754034 0.319147
967 1 0.183996 0.738937 0.308554
715 1 0.310214 0.752599 0.307117
720 1 0.437984 0.746737 0.308746
723 1 0.552774 0.743585 0.323215
727 1 0.689515 0.758352 0.318548
731 1 0.810409 0.749367 0.318074
735 1 0.938274 0.750764 0.321109
708 1 0.00309308 0.802213 0.319727
712 1 0.131032 0.810654 0.319503
716 1 0.246574 0.804752 0.306933
747 1 0.367833 0.815379 0.324851
724 1 0.495531 0.808849 0.318854
728 1 0.628469 0.811325 0.315965
1017 1 0.763851 0.818228 0.321968
736 1 0.873176 0.802467 0.317726
739 1 0.0613159 0.871724 0.315275
743 1 0.189612 0.86589 0.311046
714 1 0.304835 0.874136 0.303321
718 1 0.43599 0.87092 0.324165
755 1 0.563588 0.871655 0.318861
759 1 0.693732 0.877016 0.322468
763 1 0.826389 0.872918 0.316016
767 1 0.932418 0.864327 0.309083
740 1 -0.000228321 0.940623 0.315534
744 1 0.138898 0.928568 0.300229
523 1 0.259109 0.93786 0.303822
756 1 0.504102 0.938465 0.312751
768 1 0.873419 0.935868 0.321552
515 1 0.0651142 0.996131 0.299229
749 1 0.370514 0.942265 0.31217
760 1 0.631264 0.93829 0.3144
536 1 0.693663 0.00368187 0.310239
537 1 0.761522 0.935176 0.311058
770 1 0.0700455 0.0568732 0.362398
774 1 0.185187 0.0584676 0.362037
778 1 0.315055 0.0599846 0.370518
781 1 0.374564 0.998943 0.373811
782 1 0.44157 0.056216 0.375353
789 1 0.621186 0.00600669 0.384288
793 1 0.752824 0.00340757 0.370949
797 1 0.877034 0.000549688 0.376326
786 1 0.545547 0.061284 0.378672
1050 1 0.689868 0.055113 0.373408
794 1 0.81465 0.052992 0.384701
798 1 0.927681 0.0692553 0.370574
801 1 0.00572462 0.105884 0.370801
805 1 0.127627 0.120741 0.378188
809 1 0.24551 0.124067 0.373597
813 1 0.368038 0.123993 0.367171
532 1 0.505107 0.128806 0.37894
821 1 0.627227 0.121982 0.377278
825 1 0.746057 0.115376 0.369871
829 1 0.867702 0.11979 0.378148
808 1 0.0638397 0.175175 0.370174
806 1 0.184838 0.18112 0.372291
810 1 0.300544 0.198054 0.367793
814 1 0.446159 0.190032 0.379181
818 1 0.566969 0.183525 0.369845
822 1 0.690595 0.182349 0.378885
826 1 0.815817 0.189909 0.364208
548 1 0.936077 0.151651 0.356383
837 1 0.126791 0.237428 0.372991
841 1 0.246211 0.259455 0.372497
845 1 0.376522 0.252803 0.37388
849 1 0.500185 0.255414 0.381367
853 1 0.631436 0.247775 0.373944
861 1 0.886973 0.243599 0.382159
833 1 0.00907368 0.239227 0.377353
834 1 0.0463507 0.310999 0.375197
838 1 0.181588 0.316472 0.365293
842 1 0.316072 0.309723 0.375231
846 1 0.436238 0.312115 0.38212
850 1 0.576097 0.313389 0.376773
854 1 0.700662 0.299564 0.378845
858 1 0.825959 0.299576 0.36031
862 1 0.955139 0.308853 0.385351
865 1 0.991985 0.379203 0.37088
611 1 0.116207 0.365815 0.371665
873 1 0.250887 0.362478 0.370877
877 1 0.371955 0.36638 0.378826
881 1 0.513175 0.365512 0.372954
885 1 0.639154 0.365785 0.360876
860 1 0.75446 0.368903 0.372936
893 1 0.869867 0.372184 0.386514
866 1 0.0585512 0.432206 0.364475
870 1 0.174079 0.427123 0.367553
874 1 0.305291 0.425797 0.356347
878 1 0.442117 0.44345 0.36438
628 1 0.5702 0.435026 0.379197
889 1 0.699807 0.439544 0.380072
890 1 0.820213 0.436683 0.379136
894 1 0.93269 0.440231 0.381713
897 1 0.99612 0.490999 0.373717
901 1 0.120636 0.505251 0.38068
909 1 0.37683 0.493957 0.373802
917 1 0.632394 0.488197 0.376169
902 1 0.18505 0.562596 0.373487
905 1 0.248814 0.49408 0.376296
913 1 0.509415 0.497471 0.373154
914 1 0.574825 0.55493 0.370494
918 1 0.689172 0.560828 0.381907
921 1 0.75932 0.498114 0.373711
925 1 0.87084 0.494566 0.357532
898 1 0.0486786 0.556076 0.380386
906 1 0.319779 0.55694 0.375025
910 1 0.448034 0.545219 0.369097
922 1 0.814703 0.556051 0.379966
926 1 0.925548 0.554326 0.368961
933 1 0.126429 0.614964 0.375577
934 1 0.245233 0.620143 0.379418
941 1 0.371455 0.619422 0.364855
945 1 0.506637 0.609344 0.369626
949 1 0.63299 0.622348 0.374194
953 1 0.745752 0.627424 0.380792
930 1 0.0666127 0.672687 0.383468
969 1 0.188005 0.674687 0.368989
937 1 0.311083 0.679487 0.370825
942 1 0.430632 0.686998 0.37666
946 1 0.562762 0.690828 0.382119
950 1 0.688838 0.691054 0.378923
954 1 0.812134 0.679755 0.378029
958 1 0.932672 0.683284 0.371856
965 1 0.127319 0.733311 0.367086
971 1 0.241399 0.75413 0.378474
938 1 0.376404 0.74509 0.363182
977 1 0.500259 0.746203 0.38213
981 1 0.633175 0.748091 0.386483
985 1 0.74525 0.751595 0.385265
989 1 0.880493 0.754424 0.385476
961 1 0.996943 0.746828 0.387803
962 1 0.0569252 0.802577 0.387976
966 1 0.182028 0.813211 0.382152
970 1 0.302246 0.806097 0.368278
974 1 0.434753 0.800815 0.369789
1013 1 0.559026 0.812631 0.371406
982 1 0.695287 0.814344 0.374328
986 1 0.81576 0.830187 0.383343
990 1 0.943966 0.816781 0.379543
993 1 0.99995 0.876856 0.373177
997 1 0.122914 0.858256 0.380655
1001 1 0.241093 0.873476 0.370704
1005 1 0.369329 0.875113 0.38234
1011 1 0.62911 0.871172 0.376891
1020 1 0.747313 0.882814 0.379991
1021 1 0.88039 0.877579 0.381171
994 1 0.0686457 0.941281 0.36829
998 1 0.176918 0.924075 0.372921
748 1 0.30526 0.931957 0.377962
1010 1 0.568675 0.937188 0.364537
764 1 0.816009 0.930844 0.385064
1022 1 0.938983 0.932704 0.377702
773 1 0.125155 0.997122 0.357756
777 1 0.243609 0.993231 0.376327
1006 1 0.436006 0.937713 0.380436
785 1 0.499525 0.993576 0.373611
769 1 0.00549593 0.00277438 0.371904
776 1 0.125102 0.058216 0.429827
783 1 0.434852 -6.72313e-05 0.437916
787 1 0.557298 0.984048 0.428722
795 1 0.812284 0.997005 0.441273
772 1 -0.000378353 0.0583408 0.438617
780 1 0.251734 0.056986 0.426854
784 1 0.372279 0.0626135 0.426303
1038 1 0.501997 0.064756 0.446084
792 1 0.624625 0.0615681 0.446258
1049 1 0.743065 0.0592579 0.435844
800 1 0.878332 0.0684794 0.442304
803 1 0.064592 0.114191 0.432121
807 1 0.183812 0.114529 0.43283
811 1 0.305006 0.118793 0.426079
819 1 0.56296 0.121325 0.434511
828 1 0.680154 0.122073 0.443865
827 1 0.809007 0.10848 0.441777
831 1 0.939983 0.119604 0.43547
1061 1 0.127026 0.17177 0.4399
812 1 0.252324 0.184956 0.432764
816 1 0.36945 0.195773 0.432643
820 1 0.50334 0.193958 0.436547
824 1 0.603404 0.187789 0.440746
859 1 0.75839 0.174575 0.431534
830 1 0.882729 0.180904 0.431432
804 1 0.00418052 0.16695 0.427873
835 1 0.0565206 0.234571 0.440426
839 1 0.188868 0.240236 0.433301
843 1 0.308246 0.249667 0.432636
847 1 0.435321 0.242963 0.438633
851 1 0.560422 0.260153 0.438569
855 1 0.690854 0.239519 0.44204
857 1 0.761129 0.246463 0.380437
832 1 0.820002 0.242387 0.438725
863 1 0.95081 0.246077 0.442497
840 1 0.111011 0.301314 0.441969
844 1 0.260876 0.316893 0.440792
848 1 0.373495 0.305975 0.433151
852 1 0.486939 0.311809 0.443826
856 1 0.632799 0.309298 0.433627
1145 1 0.756921 0.307551 0.43677
864 1 0.880757 0.305655 0.429619
836 1 0.0113456 0.303613 0.444772
867 1 0.0539504 0.36897 0.429338
869 1 0.179505 0.371355 0.426217
875 1 0.30744 0.381886 0.425015
879 1 0.44007 0.380589 0.416975
883 1 0.57171 0.383263 0.452128
887 1 0.689253 0.371153 0.441734
892 1 0.811269 0.368458 0.445212
895 1 0.956089 0.366112 0.446502
872 1 0.115206 0.423662 0.427937
876 1 0.243678 0.431025 0.444352
880 1 0.381413 0.434141 0.432044
884 1 0.490268 0.439354 0.434919
888 1 0.635712 0.434487 0.438535
896 1 0.88212 0.439471 0.448951
868 1 0.0074616 0.439906 0.434972
899 1 0.0695423 0.504673 0.44295
903 1 0.179548 0.482415 0.430383
907 1 0.308544 0.476565 0.429755
1166 1 0.4257 0.503393 0.441587