ITEM: TIMESTEP
100000
ITEM: NUMBER OF ATOMS
2048
ITEM: BOX BOUNDS pp pp pp
0.0000000000000000e+00 1.2699208415745595e+01
0.0000000000000000e+00 1.2699208415745595e+01
0.0000000000000000e+00 1.2699208415745595e+01
ITEM: ATOMS id type xs ys zs
1382 1 0.265854 0.0126511 0.139861
1992 1 0.258991 0.634573 0.0221413
1803 1 0.417584 0.605524 0.382449
1705 1 0.569655 0.481722 0.360037
113 1 0.70399 0.29498 0.0258705
1894 1 0.63394 0.584538 0.490424
1828 1 0.799082 0.0348828 0.0761477
1040 1 0.549307 0.104234 0.0184799
990 1 0.159561 0.785866 0.347234
1041 1 0.335489 0.200722 0.071357
1247 1 0.625087 0.355603 0.0835904
1571 1 0.39396 0.90513 0.479457
973 1 0.417152 0.302154 0.39584
1844 1 0.943349 0.0315884 0.189666
536 1 0.307238 0.960025 0.0730768
1552 1 0.0186845 0.448661 0.0839357
452 1 0.403567 0.449863 0.0492759
951 1 0.92644 0.13749 0.123951
580 1 0.665998 0.729615 0.481048
189 1 0.443676 0.965191 0.467346
1597 1 0.631134 0.828137 0.477045
786 1 0.698394 0.929746 0.0145827
489 1 0.537655 0.221177 0.415287
690 1 0.899955 0.515203 0.193901
397 1 0.849075 0.223009 0.0637417
976 1 0.932954 0.10586 0.235525
563 1 0.755494 0.727864 0.465857
1862 1 0.120996 0.831773 0.0653953
958 1 0.365481 0.529278 0.322285
107 1 0.286961 0.720646 0.441322
1974 1 0.728097 0.402596 0.232518
1544 1 0.353688 0.71109 0.484127
1364 1 0.0366311 0.557286 0.454189
1162 1 0.0741971 0.884539 0.453325
1994 1 0.087102 0.828647 0.161845
16 1 0.262655 0.3479 0.0429165
1372 1 0.820497 0.523531 0.19471
929 1 0.321431 0.390866 0.0901653
1972 1 0.565876 0.272201 0.469783
378 1 0.456207 0.314655 0.073443
357 1 0.912772 0.953951 0.0156429
1494 1 0.803245 0.801955 -0.000384347
1740 1 0.524609 0.706208 0.471251
1100 1 0.171837 0.525748 0.0639053
1747 1 0.458626 0.406556 0.17498
508 1 0.706833 0.372296 0.0469702
1601 1 0.706094 0.326453 0.442762
1945 1 0.587947 0.536372 0.42036
299 1 0.754698 0.842202 0.0807311
1274 1 0.103315 0.472249 0.118281
642 1 0.644661 0.416999 0.316155
346 1 0.414628 0.467016 0.13305
1474 1 0.46967 0.574674 0.11064
188 1 0.387581 0.100542 0.00964937
1871 1 0.263731 0.437476 0.0335379
1416 1 0.763414 0.95944 0.475402
132 1 0.913593 0.605326 0.147691
439 1 0.273099 0.839166 0.455964
1398 1 0.415507 0.655806 0.026925
648 1 0.492752 0.342415 0.0098023
1107 1 0.667774 0.191718 0.498873
36 1 0.020548 0.48181 0.4573
746 1 0.567746 0.179694 0.0263738
513 1 0.313036 0.588891 0.04287
1878 1 0.476007 0.514415 0.0659462
1829 1 0.413132 0.542609 0.456202
1944 1 0.56477 0.65588 0.0604732
645 1 0.673225 0.626916 0.0882187
995 1 0.698618 0.0434706 0.49609
1964 1 0.716185 0.91218 0.440755
829 1 0.200741 0.645685 0.0872528
179 1 0.0314818 0.274181 0.0118346
1278 1 0.598142 0.724495 0.112449
559 1 0.186733 0.863959 0.0783867
42 1 0.3729 0.730848 0.0386269
1450 1 0.875731 0.882664 0.183894
391 1 0.272815 0.664188 0.102378
1656 1 0.780715 0.88589 0.497308
1182 1 0.97274 0.483842 0.377945
485 1 0.772668 0.400553 0.116126
1901 1 0.601381 0.126056 0.0862136
609 1 0.622233 0.838463 0.0222206
1486 1 0.820047 0.800858 0.229878
95 1 0.538114 0.723845 0.0746092
40 1 0.404089 0.803149 0.165748
1148 1 0.465195 0.108144 0.453173
1010 1 0.403958 0.0495809 0.485306
1521 1 0.0917738 0.177721 0.12407
1892 1 0.71682 0.573044 0.482083
1644 1 0.940914 0.82421 0.168983
219 1 0.834625 0.821871 0.0700458
1936 1 0.244357 0.155996 0.0190566
198 1 0.394664 0.591017 0.101633
1254 1 0.512031 0.447332 0.125614
782 1 0.324542 0.786175 0.441193
988 1 0.664016 0.691622 0.148077
1932 1 0.328209 0.868452 0.219497
1608 1 0.262756 0.875889 0.0964568
611 1 0.473939 0.829572 0.0304182
486 1 0.694594 0.847429 0.138511
1652 1 0.876444 0.987136 0.16755
329 1 0.381586 0.896743 0.112169
185 1 0.156462 0.635176 0.430377
1911 1 0.736615 0.977601 0.0615908
503 1 0.201135 0.0424285 0.0768922
1797 1 0.594903 0.98902 0.461133
1017 1 0.0408406 0.578532 0.0242689
967 1 0.820584 0.540484 0.371795
641 1 0.390204 0.836875 0.316639
1683 1 0.975802 0.0344419 0.461405
952 1 0.242095 0.962093 0.360934
1095 1 0.324359 0.253472 0.0008679
630 1 0.631334 0.57494 0.360076
734 1 0.415857 0.164117 0.447071
918 1 0.145025 0.953157 0.0691132
168 1 0.228195 0.935441 0.139481
157 1 0.0813485 0.437907 0.492494
629 1 0.992022 0.518507 0.00861639
1869 1 0.216142 0.298292 0.441765
1442 1 0.824504 0.973731 0.0156024
1468 1 0.0397497 0.10132 0.0238457
1607 1 0.239542 0.105535 0.0850006
1448 1 0.91694 0.547496 0.0216397
152 1 0.42567 1.00162 0.187735
398 1 0.698556 0.23472 0.218976
2007 1 0.786352 0.0895007 0.127207
1628 1 0.848539 0.0609298 0.0214671
1422 1 0.559179 0.322047 0.345413
315 1 0.802382 0.59304 0.43843
1062 1 0.404759 0.992722 0.0335008
1238 1 0.86248 0.598263 0.0652727
1315 1 0.882054 0.0752541 0.182795
1785 1 0.951296 0.0607766 0.0285494
588 1 0.42524 0.308152 0.000969265
864 1 0.823937 0.387648 0.0317268
555 1 0.435513 0.0930848 0.0686752
1527 1 0.272248 0.662931 0.392081
1771 1 0.504672 0.116836 0.0906228
1780 1 0.650295 0.198722 0.0879121
1454 1 0.709017 0.845289 0.493543
1833 1 0.825702 0.145184 0.199957
750 1 0.243051 0.192925 0.0930786
1810 1 0.224893 0.238195 0.486607
927 1 0.461362 0.4513 0.41208
104 1 0.641404 0.915466 0.471438
1288 1 0.63672 0.628906 0.0233127
1949 1 0.164529 0.216873 0.116361
1111 1 0.6508 0.28268 0.0873483
670 1 0.404029 0.859285 0.00734142
1103 1 0.589297 0.4244 0.106948
1600 1 0.475741 0.311292 0.476557
831 1 0.109565 0.242576 0.161341
1144 1 0.216003 0.443128 0.180492
1745 1 0.669975 0.110704 0.478599
1889 1 0.195221 0.770078 -0.00134114
634 1 0.320183 0.375629 0.00080492
519 1 0.980306 0.380066 0.0606138
522 1 0.0548659 0.34754 0.0457382
1019 1 0.0470524 0.00831742 0.463628
232 1 0.078148 0.394482 0.122724
1504 1 0.331325 0.468021 0.0824902
1812 1 0.38649 0.368471 0.22671
1688 1 0.52759 0.367693 0.102216
463 1 0.880173 0.534674 0.115429
1807 1 0.0509495 0.370726 0.198681
1765 1 0.839855 0.38082 0.142494
1060 1 0.665335 0.864736 0.382458
1112 1 0.447179 0.267763 0.172777
484 1 0.787561 0.503394 0.0580852
429 1 0.946314 0.558184 0.0944015
1903 1 0.116093 0.281941 0.0971373
1788 1 0.544335 0.578805 0.0673335
1033 1 0.558224 0.466364 0.18497
137 1 0.863862 0.457039 0.469579
1063 1 0.967384 0.139371 0.029307
1606 1 0.405263 0.244551 0.0402635
1720 1 0.204526 0.293794 0.189773
97 1 0.115845 0.470545 0.200016
1424 1 0.390251 0.395106 0.114195
1385 1 0.67773 0.763961 0.186747
210 1 0.553189 0.397828 0.0355799
850 1 0.690066 0.576187 0.158908
593 1 0.920066 0.760851 0.0340701
1108 1 0.786257 0.258517 0.0515674
93 1 0.462559 0.407073 0.0738255
530 1 0.0644828 0.777008 0.0956785
314 1 0.0885235 0.605843 0.229578
1690 1 0.344359 0.528469 0.16799
1430 1 0.520421 0.759654 0.143072
371 1 0.981528 0.287496 0.484373
1700 1 0.670022 0.441033 0.0165492
739 1 0.0637245 0.677173 0.0493774
1053 1 0.0307498 0.713003 0.12436
1784 1 0.130185 0.73352 0.069152
312 1 0.350083 0.629454 0.327971
1094 1 0.528395 0.723297 0.213894
493 1 0.113016 0.50197 0.454183
1093 1 0.182103 0.741313 0.195727
1464 1 0.23116 0.715712 0.0584763
1662 1 0.736059 0.765466 0.0872283
1276 1 0.804954 0.562965 0.102499
255 1 0.114719 0.72789 0.155988
1638 1 0.934295 0.94337 0.19134
340 1 0.897181 0.761332 0.114845
788 1 0.122824 0.654745 0.0997072
661 1 0.377689 0.728317 0.197112
1707 1 0.097688 0.779295 0.0170942
1726 1 0.391169 0.916742 0.185817
1919 1 0.758621 0.864589 0.165902
525 1 0.934947 0.873561 0.108386
1659 1 0.99642 0.879974 0.19536
305 1 0.066549 0.84896 0.228584
1906 1 0.321708 0.837585 0.121394
1583 1 0.117478 0.0709289 0.0287412
1701 1 0.94586 0.636043 0.077572
115 1 0.227904 0.970168 0.0714877
1316 1 0.531533 0.900949 0.109448
1766 1 0.997259 0.857041 0.490324
866 1 0.737622 0.917485 0.110985
1512 1 0.943914 0.0291395 0.108651
1632 1 -0.00218992 0.0729229 0.163429
418 1 0.0205298 0.163219 0.121218
1461 1 0.555789 0.854574 0.170073
1188 1 0.0311787 0.188168 0.0302323
957 1 0.0160834 0.34255 0.427405
1710 1 0.47833 0.161504 0.0371421
451 1 0.49883 0.0465522 0.0624312
148 1 0.676625 0.0762495 0.176932
45 1 0.837263 0.677038 0.0152153
288 1 0.256714 0.0954554 0.181189
1717 1 0.0611394 0.0193588 0.253011
1612 1 0.378712 0.247292 0.151631
626 1 0.386367 0.059981 0.208442
2017 1 0.571228 0.999429 0.133972
1758 1 0.809104 0.510104 0.463913
1072 1 0.881825 0.104797 0.342817
1226 1 0.1959 0.135274 0.187304
1640 1 0.182261 0.113058 0.0296106
741 1 0.280284 0.163057 0.154989
444 1 0.448903 0.117434 0.186769
1842 1 0.494296 0.18009 0.470593
106 1 0.670832 0.113621 0.1112
534 1 0.0582047 0.044282 0.0686661
587 1 0.100323 0.14778 0.0445346
991 1 0.163986 0.143017 0.108959
644 1 0.411373 0.169857 0.085943
120 1 0.559767 0.185139 0.110957
1924 1 0.844441 0.302105 0.0193071
1767 1 0.730008 0.17393 0.0875498
947 1 0.889239 0.0139547 0.0626021
672 1 0.0641206 0.130673 0.184955
733 1 0.324226 0.0864859 0.144903
1714 1 0.503122 0.334585 0.171046
715 1 0.869126 0.272303 0.122957
1680 1 0.835435 0.13607 0.0786763
960 1 0.251521 0.383354 0.120943
393 1 0.617201 0.234904 0.0166572
1818 1 0.547778 0.852255 0.458822
510 1 0.817293 0.335517 0.0826588
381 1 0.0241027 0.321169 0.117044
702 1 0.304741 0.300957 0.23166
248 1 0.293117 0.270346 0.0670732
446 1 0.476581 0.191742 0.124103
1304 1 0.51591 0.964543 0.066795
919 1 0.920097 0.421583 0.107363
1333 1 0.950393 0.271158 0.135657
1920 1 0.039115 0.618143 0.094622
1986 1 0.736213 0.566271 0.0728424
744 1 0.825139 0.401737 0.241481
516 1 0.942985 0.434616 0.188662
118 1 0.341251 0.44843 0.15107
1342 1 0.27082 0.478218 0.218948
461 1 0.77899 0.447963 0.203094
2047 1 0.871766 0.489166 0.0496954
1909 1 0.145453 0.393803 0.198638
330 1 0.361763 0.3118 0.180876
1027 1 0.236122 0.542742 0.161116
557 1 0.587375 0.638397 0.127306
267 1 0.982336 0.70467 0.0690964
1269 1 0.37786 0.522325 0.0470264
1331 1 0.611764 0.565509 0.145704
1885 1 0.646041 0.641197 0.210981
344 1 0.626257 0.491595 0.105227
1721 1 0.537603 0.872922 0.0375332
1318 1 0.954025 0.525333 0.276861
24 1 0.175433 0.501675 0.150849
394 1 0.230755 0.575072 0.0903297
796 1 0.440025 0.647429 0.148584
818 1 0.662404 0.790959 0.0999111
307 1 0.522557 0.604667 0.172271
245 1 0.884599 0.695349 0.0728926
905 1 0.145424 0.464952 0.0182036
1437 1 0.190301 0.715603 0.121657
1883 1 0.297862 0.601935 0.141174
594 1 0.421761 0.665551 0.218944
849 1 0.603735 0.581532 0.248015
2034 1 0.956255 0.682635 0.135164
720 1 0.16023 0.594585 0.125024
1923 1 0.485977 0.644282 0.06536
650 1 0.571619 0.650655 0.208504
1823 1 0.897942 0.103282 0.0608517
1221 1 0.74932 0.632912 0.103514
838 1 0.00587383 0.75502 0.299392
1941 1 0.924356 0.829001 0.259557
1084 1 0.411001 0.712424 0.11055
434 1 0.155509 0.783014 0.11761
87 1 0.613431 0.711074 0.0337151
857 1 0.574615 0.788158 0.0445144
109 1 0.620765 0.715239 0.218882
1225 1 0.0119124 0.982125 0.212138
1386 1 0.317282 0.79235 0.189554
428 1 0.493187 0.962621 0.150584
1176 1 0.751544 0.788918 0.172858
351 1 0.688541 0.927997 0.19188
1841 1 0.743286 0.710939 0.158549
407 1 0.349067 0.759627 0.128238
310 1 0.411321 0.876934 0.247608
1058 1 0.435189 0.982495 0.101693
1636 1 0.641198 0.961112 0.103204
515 1 0.630558 0.84199 0.190178
1716 1 0.0526138 0.92705 0.246702
872 1 0.0114689 0.821039 0.142337
1516 1 0.505664 0.0360959 0.143964
1875 1 0.409588 0.954383 0.25651
564 1 0.599425 0.85435 0.0989454
15 1 0.780867 0.00654932 0.149684
1769 1 0.833048 0.976392 0.104147
697 1 0.154527 0.0747009 0.148433
501 1 0.140639 0.0981787 0.220371
842 1 0.9865 0.038908 0.255806
1728 1 0.0282851 0.851419 0.0688661
361 1 0.363175 0.0513819 0.0642696
1749 1 0.313678 0.919316 0.140332
1732 1 0.808836 0.0207913 0.456446
601 1 0.0590006 0.0329204 0.176718
1555 1 0.192249 0.010734 0.145802
770 1 0.15254 0.00441084 0.0106435
480 1 0.174627 0.951814 0.401207
1272 1 0.482103 0.079083 0.241843
2015 1 0.728148 0.0697431 0.327236
2038 1 0.164367 0.0930296 0.322618
1082 1 0.619533 0.154386 0.179536
659 1 0.697182 0.101336 0.242923
1202 1 0.772418 0.116366 0.250199
1534 1 0.992083 0.154342 0.19788
1079 1 0.974968 0.300252 0.308324
1696 1 0.0392054 0.198635 0.25369
1579 1 0.216874 0.00321284 0.230885
1258 1 0.413501 0.0675152 0.136698
1219 1 0.706418 0.0395181 0.0940619
1805 1 0.69417 0.296038 0.171891
787 1 0.964347 0.220248 0.234691
487 1 0.0853937 0.100395 0.109711
1926 1 0.992846 0.0893393 0.0856524
73 1 0.204722 0.0253704 0.328597
25 1 0.236263 0.13834 0.312999
874 1 0.37547 0.143339 0.14999
75 1 0.725004 0.332626 0.108191
1168 1 0.770755 0.194687 0.214542
1786 1 0.902912 0.174667 0.219711
512 1 0.902059 0.256793 0.201718
566 1 0.00150364 0.396228 0.143204
1428 1 0.106364 0.390066 0.265177
1311 1 0.260063 0.245323 0.250357
1324 1 0.4778 0.244236 0.0571281
1633 1 0.973521 0.216938 0.312698
1217 1 0.196404 0.184844 0.262224
551 1 0.306215 0.240813 0.13233
1746 1 0.532652 0.241468 0.00221433
1411 1 0.88571 0.306127 0.326569
1979 1 0.913712 0.255688 0.0341128
1097 1 0.888069 0.197764 0.143937
1870 1 0.234041 0.0668702 0.276453
39 1 0.159825 0.421768 0.118692
751 1 0.304821 0.386058 0.195589
693 1 0.324787 0.213975 0.214028
740 1 0.587939 0.311125 0.131285
1856 1 0.780454 0.303883 0.145162
325 1 0.254947 0.308097 0.134986
977 1 0.398202 0.364681 0.0409043
2029 1 0.214789 0.21544 0.175232
150 1 0.667797 0.378982 0.144118
538 1 0.722904 0.475514 0.363358
2035 1 0.851106 0.320378 0.187899
1022 1 0.025409 0.50253 0.300471
1789 1 0.183887 0.341431 0.123778
1414 1 0.20024 0.274313 0.287758
2 1 0.295017 0.437475 0.404523
738 1 0.402208 0.45072 0.208275
396 1 0.504201 0.52187 0.341784
754 1 0.685723 0.442279 0.0931743
1808 1 0.211228 0.405616 0.368532
1738 1 0.553324 0.506099 0.0898321
404 1 0.720825 0.51072 0.12774
1573 1 0.859191 0.683682 0.150091
528 1 0.792952 0.490725 0.131901
197 1 0.25933 0.346269 0.29996
1792 1 0.160997 0.327076 0.399721
328 1 0.283324 0.577815 0.218523
13 1 0.519213 0.531163 0.15269
1370 1 0.429092 0.503504 0.271389
1802 1 0.838739 0.6303 0.28486
1928 1 0.986682 0.58723 0.163475
666 1 0.0237392 0.537447 0.0872783
1070 1 0.0987504 0.576081 0.080933
841 1 0.146083 0.583234 0.36477
1501 1 0.340892 0.503518 0.244303
778 1 0.412317 0.563727 0.187978
602 1 0.696187 0.618491 0.267115
615 1 0.117449 0.707402 0.237346
698 1 0.096642 0.72677 0.404282
683 1 0.33186 0.660669 0.0341606
1337 1 0.305461 0.684372 0.191804
1261 1 0.51964 0.682392 0.146424
805 1 0.715837 0.599435 0.00496447
1912 1 0.757568 0.65696 0.262335
77 1 0.889361 0.779352 0.213708
768 1 0.0643467 0.663327 0.183732
430 1 0.144815 0.654332 0.191406
1677 1 0.359842 0.650817 0.123807
1215 1 0.57356 0.747131 0.273918
225 1 0.516715 0.594072 0.306064
1126 1 0.816603 0.658376 0.0916389
1913 1 0.906678 0.838585 0.0474333
605 1 0.0922123 0.905172 0.185303
377 1 0.294247 0.718746 0.257837
316 1 0.447205 0.78219 0.0906591
443 1 0.561663 0.654774 0.307742
1459 1 0.824987 0.741456 0.0578436
1562 1 0.837459 0.853221 0.278812
907 1 0.996539 0.807158 0.221689
263 1 0.241782 0.7918 0.319337
1180 1 0.518885 0.821325 0.0956631
590 1 0.589127 0.724782 0.343664
1493 1 0.67954 0.699464 0.0657863
1873 1 0.846265 0.925234 0.240886
1441 1 0.00871883 0.86036 0.274009
1669 1 0.99628 0.977707 0.131692
1377 1 0.249129 0.841412 0.184789
1753 1 0.472235 0.858163 0.330885
1397 1 0.802121 0.933301 0.179763
1589 1 0.901247 0.00774583 0.247509
1619 1 0.128962 0.0125809 0.193695
372 1 0.571014 0.0754626 0.166449
88 1 0.628087 0.039992 0.0992472
708 1 0.549143 0.0231514 0.236741
2042 1 0.862859 0.0447393 0.305198
499 1 0.117128 0.0036594 0.395348
293 1 0.976904 0.985675 0.320065
1131 1 0.520746 0.0726782 0.41128
797 1 0.586759 0.773364 0.180296
1347 1 0.677938 0.00182014 0.246682
1840 1 0.852423 0.104804 0.262287
1584 1 0.0267068 0.066039 0.314147
146 1 0.0561648 0.135878 0.339237
7 1 0.234627 0.0901183 0.423051
1817 1 0.126396 0.0226807 0.094896
462 1 0.363443 0.996119 0.129199
1877 1 0.688972 0.190966 0.152282
450 1 0.828773 0.258495 0.252517
1727 1 0.750219 0.0409633 0.259029
1177 1 0.132666 0.0819515 0.402858
1510 1 0.270031 0.201714 0.348586
1458 1 0.595035 0.0207431 0.390012
1651 1 0.795797 0.113725 0.325918
1104 1 0.34798 0.17524 0.365457
1259 1 0.332862 0.183041 0.29107
701 1 0.541801 0.939907 0.2024
1326 1 0.753661 0.173658 0.350796
1309 1 0.980009 0.126279 0.29288
425 1 0.909813 0.175435 0.336781
440 1 0.105819 0.127433 0.282928
2041 1 0.373706 0.297632 0.0924711
652 1 0.91734 0.345918 0.138224
186 1 0.541083 0.296422 0.223845
417 1 0.573286 0.210494 0.209318
1741 1 0.829404 0.238697 0.180918
1281 1 0.907092 0.243174 0.286908
731 1 0.893702 0.325513 0.0675344
579 1 0.117797 0.176879 0.225732
496 1 0.149896 0.247017 0.228251
1483 1 0.429334 0.183511 0.31772
1996 1 0.331728 0.357359 0.30426
902 1 0.623201 0.304792 0.207673
1948 1 0.802544 0.306172 0.429119
819 1 0.953076 0.491012 0.133939
945 1 0.520465 0.206292 0.344065
1293 1 0.529174 0.394404 0.205989
953 1 0.890601 0.419167 0.0203502
48 1 0.81913 0.348518 0.355569
603 1 0.980489 0.508658 0.205463
11 1 0.0420591 0.431823 0.254887
1618 1 0.744535 0.329947 0.37494
6 1 0.739524 0.522855 0.213079
1412 1 0.778025 0.371398 0.186904
1087 1 0.130813 0.429195 0.427374
174 1 0.236062 0.410413 0.260367
34 1 0.315995 0.420985 0.267447
1541 1 0.424057 0.195243 0.178488
635 1 0.662449 0.531185 0.214477
589 1 0.830726 0.421799 0.317385
98 1 0.892742 0.46046 0.276476
1542 1 0.84912 0.600844 0.187991
975 1 0.0300709 0.467029 0.165312
125 1 0.149282 0.560812 0.209648
66 1 0.350276 0.440258 0.335315
1090 1 0.605546 0.380575 0.184428
1189 1 0.711949 0.438979 0.164187
1001 1 0.796704 0.659697 0.19349
1089 1 0.990126 0.673713 0.215277
1626 1 0.17591 0.454959 0.246282
1578 1 0.43891 0.560624 0.323306
1843 1 0.662924 0.550669 0.296887
276 1 0.633899 0.657736 0.282077
1465 1 0.916461 0.679443 0.206862
695 1 0.0364549 0.639759 0.286712
1173 1 0.184096 0.548024 0.440355
244 1 0.46103 0.507806 0.191206
1533 1 0.565438 0.474037 0.462128
187 1 0.703633 0.780316 0.296378
749 1 0.761639 0.631394 0.34123
944 1 0.834952 0.770123 0.303897
134 1 0.961653 0.67803 0.282159
1366 1 0.223383 0.691097 0.22915
1556 1 0.168636 0.580642 0.281879
1866 1 0.29366 0.555702 0.303049
1179 1 0.354381 0.625249 0.206278
479 1 0.975244 0.819606 0.331063
1933 1 0.2422 0.77343 0.242073
799 1 0.402777 0.795913 0.240895
2023 1 0.206801 0.890142 0.368385
915 1 0.459089 0.72708 0.177608
1322 1 0.790691 0.608685 0.0330628
769 1 0.710992 0.921961 0.358192
1983 1 0.771108 0.730218 0.28509
269 1 0.893616 0.876649 0.401338
1676 1 0.0438647 0.72939 0.242003
1503 1 0.0535374 0.763455 0.177535
870 1 0.72197 0.646393 0.192792
657 1 0.710226 0.713689 0.234287
606 1 0.0512117 0.975832 0.323787
932 1 0.111297 0.785875 0.23578
1702 1 0.486813 0.93089 0.281034
2025 1 0.569365 0.822356 0.254076
211 1 0.147453 0.0288065 0.2631
436 1 0.127452 0.950309 0.247913
178 1 0.270576 0.842223 0.264523
60 1 0.333715 0.885146 0.294315
207 1 0.411553 0.868124 0.383644
1966 1 0.839841 0.172594 0.290757
1620 1 0.840221 0.923879 0.326242
416 1 0.909521 0.875925 0.324849
1815 1 0.0695443 0.965425 0.141893
897 1 0.60178 0.920248 0.160801
1915 1 0.808726 0.0722258 0.19692
76 1 0.397094 0.914731 0.329423
1916 1 0.528764 0.991042 0.40595
465 1 0.834666 0.170357 0.362806
1751 1 0.0326741 0.0931064 0.244098
1134 1 0.1374 0.967142 0.331475
386 1 0.449316 0.0248597 0.409712
278 1 0.621782 -0.000719951 0.200209
1507 1 0.941555 0.0607975 0.317908
623 1 0.633049 0.318467 0.468133
1354 1 0.330643 0.963052 0.234729
1371 1 0.49871 0.153988 0.267064
1069 1 0.560404 0.07509 0.297885
1152 1 0.616796 0.0728508 0.23153
901 1 0.744133 0.211033 0.287624
1369 1 0.929987 0.037634 0.395857
401 1 0.98967 0.0998811 0.374735
233 1 0.135899 0.18103 0.415183
1685 1 0.168646 0.11146 0.461273
2044 1 0.529628 0.259303 0.139241
1440 1 0.658047 0.172561 0.244116
258 1 0.972682 0.302818 0.204237
1310 1 0.175672 0.192892 0.0451519
1954 1 0.144314 0.249757 0.366612
1388 1 0.691648 0.28509 0.27502
71 1 0.905531 0.0816056 0.454567
1872 1 0.674722 0.168516 0.399355
61 1 0.0717846 0.212384 0.364005
583 1 0.0268004 0.226041 0.183802
193 1 0.123219 0.205301 0.300962
2000 1 0.292995 0.257226 0.40025
1976 1 0.626361 0.247138 0.255578
1191 1 0.798881 0.196184 0.121053
2008 1 0.842371 0.248835 0.331137
985 1 0.950993 0.322469 0.394356
996 1 0.179607 0.34346 0.247628
903 1 0.470105 0.162921 0.382939
379 1 0.522997 0.263696 0.293672
1984 1 0.771344 0.314691 0.501721
545 1 0.777586 0.288177 0.320248
1739 1 0.988698 0.18358 0.384477
227 1 0.125705 0.299971 0.275891
1266 1 0.194769 0.204101 0.332065
763 1 0.428489 0.102152 0.343374
131 1 0.394078 0.209214 0.254966
1096 1 0.678265 0.186079 0.319955
1898 1 0.902165 0.37115 0.213141
1207 1 0.852767 0.45499 0.171121
1940 1 0.980417 0.372593 0.235831
1519 1 0.224801 0.367608 0.189383
1028 1 0.640144 0.463462 0.185302
627 1 0.112211 0.331938 0.164199
560 1 0.283432 0.273492 0.326186
542 1 0.464741 0.262914 0.350472
1678 1 0.549112 0.470053 0.265144
1282 1 0.764693 0.372271 0.295647
447 1 0.767822 0.576597 0.270993
789 1 0.74258 0.708282 0.349988
622 1 0.689038 0.34664 0.322282
1566 1 0.171074 0.472917 0.319364
514 1 0.466002 0.580044 0.240923
1935 1 0.85538 0.544403 0.275553
599 1 0.886225 0.692241 0.278284
1888 1 0.991773 0.581786 0.243508
1059 1 0.109593 0.461205 0.358894
1009 1 0.235822 0.918233 0.0224044
766 1 0.477208 0.441707 0.24388
1558 1 0.376713 0.284624 0.259006
730 1 0.728866 0.554793 0.338587
1466 1 0.0253837 0.686694 0.347452
1052 1 0.266863 0.481401 0.297977
679 1 0.21506 0.529062 0.234865
714 1 0.513814 0.51313 0.423635
364 1 0.537258 0.542983 0.240421
1332 1 0.811845 0.719561 0.412599
1518 1 0.935831 0.737186 0.326861
1664 1 0.220716 0.628567 0.177354
846 1 0.492242 0.863395 0.244917
1748 1 0.683289 0.641443 0.341711
1141 1 0.836272 0.824021 0.145415
1582 1 0.904705 0.811526 0.353905
1661 1 0.066119 0.898739 0.32225
1218 1 0.254663 0.749774 0.164024
1195 1 0.0953202 0.750359 0.32118
392 1 0.821097 0.749639 0.147482
100 1 0.368436 0.679523 0.270992
1921 1 0.546276 0.586753 0.375587
727 1 0.834133 0.842865 0.364053
196 1 0.124263 0.902193 0.369881
1313 1 0.976359 0.75864 0.388289
242 1 0.141177 0.855308 0.428016
1359 1 0.0596489 0.82316 0.319364
1220 1 0.321632 0.924505 0.353838
1943 1 0.378695 0.792998 0.383018
771 1 0.503459 0.650491 0.253259
1376 1 0.750511 0.978753 0.214628
1116 1 0.771934 0.87879 0.308474
280 1 0.89892 0.97145 0.315574
327 1 0.321644 0.808329 0.310538
1348 1 0.828957 0.721058 0.225618
1708 1 0.798002 0.0136354 0.331655
873 1 0.197714 0.928846 0.299697
620 1 0.259735 0.942376 0.21222
735 1 0.190714 0.91214 0.229374
980 1 0.278538 0.0155089 0.307815
920 1 0.376405 0.937421 0.412571
1015 1 0.740846 0.138489 0.176832
1092 1 0.737764 0.0186971 0.428362
216 1 0.844757 0.99366 0.392691
1444 1 0.0297083 0.86404 0.381
1 1 0.191633 0.0275007 0.403727
858 1 0.122967 0.877372 0.267158
1109 1 0.356939 0.987281 0.301211
1275 1 0.636556 0.0812363 0.0190924
511 1 0.808042 0.0766766 0.39558
993 1 0.756708 0.904944 0.236269
540 1 0.0957821 0.0467682 0.325041
725 1 0.0525618 0.244141 0.0957504
1390 1 0.301128 0.0424943 0.2299
1854 1 0.413944 0.0409497 0.276506
1358 1 0.55169 0.140735 0.390134
793 1 0.569851 0.260959 0.0760218
1308 1 0.656517 0.966204 0.411165
1698 1 0.993896 0.98716 0.399074
1586 1 0.268064 0.871179 0.333691
1139 1 0.359362 0.132872 0.221106
1253 1 0.512881 0.117576 0.33319
934 1 0.320455 0.623288 0.445924
1170 1 0.755815 0.15609 0.431217
1487 1 0.0750987 0.206746 0.485081
339 1 0.207748 0.217281 0.407536
1897 1 0.479126 0.0475938 0.325474
170 1 0.77846 0.303029 0.22654
1824 1 0.235568 0.0571812 0.0133101
1826 1 0.00547589 0.190207 0.462119
1997 1 0.0502291 0.258615 0.294821
721 1 0.188611 0.131722 0.380721
1186 1 0.632816 0.254698 0.156607
643 1 0.534699 0.141798 0.176109
1961 1 0.949514 0.237049 0.437309
1011 1 0.363979 0.244764 0.32093
103 1 0.350214 0.208481 0.432479
1887 1 0.493307 0.219024 0.220894
1198 1 0.627454 0.0999165 0.395052
1457 1 0.888972 0.373603 0.296703
1044 1 0.847264 0.219706 0.435244
1396 1 0.930668 0.252502 0.361546
412 1 0.965396 0.378045 0.314862
1234 1 0.378318 0.287197 0.474368
835 1 0.617459 0.258602 0.417489
410 1 0.734998 0.247849 0.117203
997 1 0.0600172 0.293763 0.21869
200 1 0.215862 0.279223 0.365718
259 1 0.840611 0.276522 0.485139
2033 1 0.452506 0.268383 0.258771
1365 1 0.424525 0.337476 0.143291
573 1 0.87824 0.28898 0.40758
882 1 0.891018 0.366639 0.373226
1080 1 0.984299 0.410682 0.380999
1319 1 0.0525162 0.419616 0.413888
324 1 0.515359 0.794772 0.494035
1760 1 0.411679 0.421513 0.285312
360 1 0.403382 0.225195 0.382158
1443 1 0.45767 0.349254 0.229107
685 1 0.706976 0.48664 0.271467
135 1 0.700871 0.454454 0.46334
681 1 0.766903 0.46024 0.419649
922 1 0.0660737 0.569578 0.155459
1838 1 0.171298 0.338591 0.324724
1124 1 0.217497 0.40186 0.441984
1128 1 0.589945 0.404719 0.258197
1737 1 0.528571 0.471481 0.0163463
347 1 0.0788634 0.648222 0.3914
1799 1 0.00329352 0.602466 0.40133
1709 1 0.583409 0.541168 0.313377
777 1 0.817811 0.475511 0.262883
308 1 0.600266 0.745053 0.438676
1031 1 0.970949 0.45396 0.297668
155 1 0.93038 0.672583 0.363911
964 1 0.216015 0.528781 0.348482
177 1 0.345941 0.326147 0.376378
921 1 0.48492 0.659632 0.350569
916 1 0.754814 0.406084 0.364131
663 1 0.830412 0.62532 0.371672
1233 1 0.103529 0.477997 0.283598
1391 1 0.0467527 0.499702 0.383901
1711 1 0.239998 0.734341 0.375002
1294 1 0.380684 0.58227 0.267602
224 1 0.510838 0.425009 0.317361
1800 1 0.621105 0.656297 0.377014
1917 1 0.772156 0.876357 0.398982
868 1 0.506712 0.684771 0.00723403
619 1 0.0824758 0.554198 0.28705
1076 1 0.173824 0.483883 0.393753
526 1 0.112548 0.648785 0.320055
1420 1 0.484547 0.787982 0.213936
318 1 0.367899 0.67027 0.392568
260 1 0.429106 0.716731 0.371633
709 1 0.7735 0.585159 0.19201
1613 1 0.728326 0.836298 0.345408
2031 1 0.876611 0.74092 0.374542
1296 1 0.873875 0.665878 0.421939
2024 1 0.594527 0.901683 0.41075
169 1 0.535142 0.760322 0.395241
668 1 0.77917 0.768407 0.360667
548 1 0.69597 0.21762 0.0276253
986 1 0.168041 0.656258 0.264834
345 1 0.177599 0.820686 0.209211
2030 1 0.666006 0.788818 0.375761
1581 1 0.77487 0.953065 0.300513
676 1 0.0645254 0.820203 0.497616
607 1 0.176135 0.72156 0.436204
948 1 0.149819 0.94917 0.156336
1603 1 0.383008 0.754439 0.310409
1146 1 0.459974 0.717146 0.286595
1393 1 0.521413 0.798569 0.308879
1938 1 0.602219 0.800184 0.322959
279 1 0.693861 0.926989 0.276118
1694 1 0.62121 0.955293 0.271782
1545 1 0.973543 0.936961 0.261936
1536 1 0.0563131 0.944996 0.394769
1000 1 0.195629 0.841798 0.282575
1190 1 0.312666 0.726288 0.352605
1320 1 0.700424 0.836259 0.240684
202 1 0.81634 0.995876 0.247228
1653 1 0.561379 0.908417 0.267715
612 1 0.971055 0.83581 0.423407
84 1 0.0408205 0.0448776 0.386849
254 1 0.278072 0.934337 0.290638
808 1 0.333465 0.983772 0.462498
1939 1 0.980921 0.906592 0.332685
879 1 0.654739 0.655271 0.464964
711 1 0.104187 0.950963 0.460072
1399 1 0.175306 0.764747 0.275379
1213 1 0.466077 0.885597 0.462261
1729 1 0.428018 0.985249 0.344372
1456 1 0.537715 0.991262 0.311617
1122 1 0.963085 0.802796 0.0870541
1634 1 0.904597 0.956511 0.41762
382 1 0.0419016 0.95758 0.0734471
1615 1 0.923912 0.389881 0.443651
1847 1 0.424648 0.133256 0.260106
1925 1 0.312931 0.0568667 0.449002
1154 1 0.857892 0.911582 0.0502968
1048 1 0.626881 0.0493436 0.327462
1470 1 0.683056 0.139246 0.033343
1794 1 0.28788 0.514484 0.0377181
1415 1 0.0148731 0.772449 0.0360165
250 1 0.226414 0.498128 -0.00210635
1617 1 0.27883 0.0706512 0.36243
909 1 0.619333 0.560668 0.0629482
1327 1 0.773942 0.22485 0.409812
265 1 0.270757 0.461972 0.127335
894 1 0.265044 0.158201 0.242184
1163 1 0.46154 0.250225 0.434475
165 1 0.374071 0.0468746 0.357138
1071 1 0.709265 0.234489 0.450596
460 1 0.950839 0.458743 0.0527925
1110 1 0.63213 0.461957 0.426063
706 1 0.948224 0.548712 0.455491
1585 1 0.244116 0.162726 0.454055
884 1 0.30543 0.101355 0.294151
1271 1 0.47546 0.00158437 0.241992
933 1 0.566729 0.176104 0.291489
1135 1 0.720606 0.260977 0.355308
1658 1 0.619984 0.274567 0.329871
1029 1 0.9729 0.98899 0.0552876
237 1 0.0618932 0.158257 0.418835
776 1 0.598513 0.333785 0.27956
1670 1 0.304214 0.269058 0.488774
1750 1 0.446887 0.876071 0.0941014
400 1 0.937888 0.732947 0.465232
183 1 0.368197 0.404101 0.407455
1647 1 0.689382 0.396385 0.401795
726 1 0.798467 0.202386 0.496817
1323 1 0.918295 0.151692 0.421307
1283 1 0.1292 0.355874 0.068477
1008 1 0.596363 0.399659 0.378234
1930 1 0.628917 0.330595 0.387531
640 1 0.834021 0.328951 0.276552
252 1 0.983745 0.113629 0.456197
775 1 0.0412971 0.437743 0.336478
1908 1 0.335588 0.34907 0.45487
1439 1 0.308885 0.759518 0.0634731
1655 1 0.752921 0.425668 0.0323997
1985 1 0.644835 0.487162 0.343997
595 1 0.746144 0.53347 0.412448
468 1 0.466762 0.95418 0.00417745
1550 1 0.0394049 0.336176 0.277159
79 1 0.453797 0.374051 0.351477
1351 1 0.578837 0.616061 0.437177
1184 1 0.713711 0.611176 0.407928
1303 1 0.657035 0.376355 0.239908
802 1 0.0559127 0.523928 0.216849
1172 1 0.913796 0.60488 0.260497
1181 1 0.235552 0.48947 0.435189
855 1 0.279618 0.41022 0.335255
1167 1 0.411423 0.3221 0.314386
1409 1 0.668169 0.532973 0.436757
981 1 0.949778 0.747095 0.246742
1763 1 0.990139 0.67882 0.433759
880 1 0.0365582 0.712242 0.489736
415 1 0.281261 0.507479 0.372177
1733 1 0.381802 0.488631 0.404566
1435 1 0.629333 0.47862 0.262299
1830 1 0.765622 0.663464 0.421407
881 1 0.822136 0.688916 0.327854
236 1 0.210244 0.629081 0.336961
1012 1 0.423892 0.635159 0.296966
1667 1 0.282547 0.591031 0.38069
234 1 0.0890565 0.959549 0.00709586
251 1 0.894525 0.806738 0.429945
757 1 0.97456 0.564246 0.344474
338 1 0.23338 0.628589 0.446107
687 1 0.239004 0.604743 0.268697
984 1 0.484959 0.581293 0.44691
748 1 0.898609 0.597148 0.355717
1611 1 0.833116 0.432773 0.0921525
1890 1 0.111565 0.687154 0.484192
235 1 0.330011 0.857117 0.386524
772 1 0.598416 0.829557 0.403846
598 1 0.679331 0.711816 0.307025
1568 1 0.979285 0.921296 0.444262
1886 1 0.591311 0.935592 0.0425593
85 1 0.222748 0.711988 0.307363
1118 1 0.455485 0.78174 0.348261
68 1 0.811109 0.80093 0.430169
1340 1 0.897443 0.170465 0.0232533
43 1 0.834021 0.932267 0.437641
896 1 0.157252 0.672324 0.03293
1338 1 0.651156 -0.00198912 0.0391106
1768 1 0.471179 0.810893 0.426289