ITEM: TIMESTEP
100000
ITEM: NUMBER OF ATOMS
2048
ITEM: BOX BOUNDS pp pp pp
0.0000000000000000e+00 1.3153131063095840e+01
0.0000000000000000e+00 1.3153131063095840e+01
0.0000000000000000e+00 1.3153131063095840e+01
ITEM: ATOMS id type xs ys zs
351 1 0.52633 0.190685 0.138344
1962 1 0.823916 0.238762 0.113534
1700 1 0.833074 0.96638 0.228127
1703 1 0.330671 0.18514 0.0296629
233 1 0.796816 0.984751 0.406427
1471 1 0.594641 0.87322 0.106204
279 1 0.768753 0.183068 0.396237
1682 1 0.257869 0.778088 0.0684736
1120 1 0.886154 0.174649 0.058812
1064 1 0.245561 0.929951 0.480116
199 1 0.156783 0.471161 0.380938
481 1 0.0460584 0.575408 0.0271235
406 1 0.358691 0.0732501 0.0869128
1460 1 0.207562 0.266645 0.444845
1643 1 0.0472811 0.0922991 0.198924
1908 1 0.0350352 0.16767 0.0545562
842 1 0.0572283 0.100381 0.0790136
163 1 0.790745 0.934369 0.0538883
140 1 0.994677 0.00227001 0.11544
345 1 0.31429 0.904212 0.0795139
2006 1 0.0417287 0.361945 0.098149
2012 1 0.371175 0.107449 0.0252202
794 1 0.691141 0.147483 0.234438
714 1 0.462741 0.381526 0.348009
1696 1 0.989925 0.522844 0.0727013
1053 1 0.212177 0.364506 0.481674
1996 1 0.170326 0.179369 0.243412
728 1 0.128674 0.0203209 0.115923
1563 1 0.0713989 0.0720263 0.500056
1556 1 0.919854 0.381002 0.0847289
724 1 0.542016 0.532891 0.474407
1444 1 0.887273 0.60173 0.0231257
1747 1 0.704239 0.0258824 0.31158
116 1 0.605668 0.227063 0.0296693
546 1 0.708618 0.271438 0.0123669
597 1 0.592122 0.342652 0.172682
1693 1 0.70769 0.155018 0.419446
1723 1 0.156936 0.289177 0.117427
1269 1 0.839806 0.796024 0.4879
1525 1 0.181709 0.0714359 0.309433
1105 1 0.33776 0.43298 0.0443641
763 1 0.472111 0.507273 0.059835
897 1 0.769398 0.504569 0.168183
1250 1 0.23538 0.323948 0.0781524
166 1 0.25144 0.618515 0.0159644
1306 1 0.236824 0.839014 0.107546
1753 1 0.545426 0.463431 0.438279
1610 1 0.723702 0.546302 0.0215661
846 1 0.893454 0.281972 0.139447
545 1 0.796235 0.116452 0.0696875
1752 1 0.87081 0.0627078 0.456984
62 1 0.00771348 0.30373 0.0285922
1297 1 0.689889 0.383883 0.106146
146 1 0.945026 0.413811 0.0230125
1551 1 0.075348 0.112441 0.00869691
1480 1 0.890763 0.573052 0.436574
1906 1 0.992936 0.624699 0.0549899
38 1 0.990109 0.475213 0.406224
1758 1 0.186309 0.490187 0.0799259
2032 1 0.517232 0.334446 0.43252
602 1 0.274076 0.833277 0.0217217
586 1 0.227218 0.954788 0.409149
470 1 0.948143 0.523999 0.184565
1569 1 0.0563334 0.540388 0.109326
202 1 0.893569 0.136041 0.499646
169 1 0.804542 0.856903 0.446016
702 1 0.25501 0.779069 0.457113
301 1 0.65067 0.606808 0.18084
1955 1 0.458484 0.706551 0.455629
1027 1 0.971644 0.592993 0.237626
409 1 0.0472997 0.727167 0.108823
210 1 0.0650474 0.426088 0.0465446
1039 1 0.764294 0.526337 0.0930311
2028 1 0.652976 0.516132 0.0573134
407 1 0.437371 0.500636 0.487423
921 1 0.311935 0.463376 0.136209
538 1 0.673485 0.480673 0.444989
526 1 0.589057 0.442809 0.249022
944 1 0.963758 0.793252 0.445283
1661 1 0.632366 0.99114 0.0656217
610 1 0.440231 0.805572 0.00920066
1834 1 0.541711 0.052464 0.0191703
29 1 0.224664 0.972909 0.0304303
2029 1 0.0518302 0.803478 0.10055
533 1 0.25856 0.51158 0.112117
60 1 0.12145 0.459538 0.0811635
1620 1 0.103641 0.532174 0.443289
1333 1 0.185288 0.886501 0.0676219
228 1 0.784949 0.362719 0.0444745
556 1 0.905913 0.754151 0.350312
1218 1 0.048462 0.008727 0.040901
1701 1 0.970928 0.15284 0.133938
1072 1 0.38881 0.91107 0.103211
1016 1 0.348471 0.35067 0.0108991
1808 1 0.679298 0.00629085 0.381937
1966 1 0.688141 0.938922 0.460102
1645 1 0.470805 0.482299 0.4124
474 1 0.915088 0.958445 0.302563
1828 1 0.515946 0.879587 0.0976312
1202 1 0.779667 0.842725 0.183202
798 1 0.595134 0.220012 0.115854
856 1 0.415447 0.01491 0.12134
1614 1 0.543686 0.745474 0.320922
1519 1 0.700394 0.239179 0.18571
865 1 0.6088 0.834626 0.0440289
57 1 0.732486 0.889865 0.0973087
523 1 0.98273 0.0794845 0.110914
435 1 0.682524 0.581851 0.460229
1714 1 0.711459 0.647537 0.47799
294 1 0.346229 0.149379 0.122611
833 1 0.41145 0.0980765 0.161536
1830 1 0.153795 0.954787 0.179784
49 1 0.169928 0.154729 0.142754
775 1 0.129454 0.295246 0.365013
234 1 0.558021 0.121207 0.201732
550 1 0.571895 0.580016 0.279944
297 1 0.887714 0.944097 0.134321
1671 1 0.186501 0.179552 0.0733889
280 1 0.257928 0.148655 0.0376336
195 1 0.828109 0.677571 0.155379
1244 1 0.547027 0.0914084 0.104795
353 1 0.694697 0.247654 0.0914853
785 1 0.803825 0.751518 0.147745
1861 1 0.489863 0.907956 0.0290156
687 1 0.804713 0.168011 0.319755
1943 1 0.975219 0.230635 0.0568469
83 1 0.294178 0.379708 0.0829805
844 1 0.625558 0.418151 0.134499
99 1 0.750913 0.275259 0.149216
488 1 0.315052 0.284862 0.182179
923 1 0.178065 0.482238 0.493244
1148 1 0.474571 0.179383 0.0826982
188 1 0.690924 0.456407 0.181831
363 1 0.634987 0.571597 0.399103
1023 1 0.0807585 0.283445 0.139432
1285 1 0.166812 0.632409 0.101604
197 1 0.216143 0.401061 0.0823979
238 1 0.188201 0.784991 0.0881724
952 1 0.338635 0.593925 0.0619074
1171 1 0.102131 0.297232 0.0675785
754 1 0.971909 0.248071 0.387878
2035 1 0.601265 0.357457 0.0802154
1790 1 0.322415 0.664734 0.0753711
120 1 0.237414 0.666578 0.11456
1818 1 0.866813 0.265275 0.208341
1656 1 0.68671 0.576858 0.0793118
1154 1 0.109532 0.0514809 0.0490232
155 1 0.395206 0.979254 0.0496916
1618 1 0.0433999 0.731908 0.391972
1838 1 0.82044 0.0720963 0.0119034
1231 1 0.767402 0.228805 0.064213
182 1 0.604883 0.58678 0.1047
1341 1 0.835703 0.484515 0.371393
1302 1 0.302419 0.719009 0.465491
1429 1 0.139658 0.721848 0.109302
673 1 0.0762605 0.511685 0.0442049
945 1 0.310144 0.8233 0.499266
943 1 0.481813 0.657556 0.107762
1992 1 0.725822 0.567526 0.139795
1639 1 0.259426 0.385588 0.0153955
500 1 0.832254 0.413892 0.0100395
1546 1 0.132483 0.78398 0.437442
167 1 0.15814 0.672035 0.0364227
64 1 0.636207 0.644295 0.0644919
245 1 0.710643 0.662551 0.0787542
302 1 0.930162 0.660812 0.0393542
1123 1 0.200656 0.807407 0.171798
662 1 0.395636 0.472015 0.0731603
453 1 0.0337162 0.313891 0.239846
1289 1 0.170751 0.347938 0.0383705
1364 1 0.562486 0.656475 0.0813856
1817 1 0.792421 0.0375198 0.486701
1116 1 0.841398 0.652212 0.24711
1071 1 0.531202 0.613657 0.465254
1291 1 0.860003 0.35066 0.039784
947 1 0.806215 0.693402 0.0895747
537 1 0.182269 0.326662 0.411284
1420 1 0.750098 0.180187 0.489133
1469 1 0.0617981 0.935052 0.00805629
765 1 0.420335 0.651893 0.15883
969 1 0.659443 0.672602 0.136471
7 1 0.908363 0.729655 0.017658
774 1 0.735289 0.635419 0.273159
492 1 0.00761391 0.264482 0.113747
493 1 0.501731 0.0530031 0.479717
179 1 0.700225 0.896302 0.22495
773 1 0.132661 0.835024 0.0875695
1004 1 0.397351 0.825117 0.0684051
975 1 0.447036 0.868667 0.298775
1658 1 0.587018 0.909009 0.0361962
456 1 0.661481 0.955863 0.128226
806 1 0.608056 0.0250155 0.135176
187 1 0.73479 0.740247 0.0724795
79 1 0.222973 0.987887 0.141434
1433 1 0.1181 0.735468 0.0224312
461 1 0.842845 0.550803 0.0876511
937 1 0.925184 0.981442 0.0828384
1897 1 0.871136 0.102347 0.100632
1733 1 0.295582 0.0498469 0.137332
1205 1 0.553242 0.941436 0.107882
1984 1 0.836413 0.0449298 0.235256
2046 1 0.338626 0.187931 0.412108
1021 1 0.325054 0.998213 0.0493713
739 1 0.109817 0.0857991 0.14877
1066 1 0.387597 0.167704 0.186871
396 1 0.539832 0.845999 0.0162959
1391 1 0.793843 0.831232 0.0358739
138 1 0.597286 0.0513071 0.205495
1776 1 0.115962 0.176757 0.0282817
316 1 0.0914058 0.000412531 0.178995
184 1 0.329516 0.11742 0.184145
1728 1 0.947963 0.171458 0.30822
274 1 0.0633717 0.140277 0.139304
1565 1 0.0977395 0.164691 0.350981
1848 1 0.0413655 0.297009 0.380493
598 1 0.518325 0.407636 0.482705
425 1 0.830801 0.125942 0.254616
178 1 0.157111 0.108545 0.0910171
825 1 0.0281003 0.200315 0.153788
41 1 0.956295 0.22093 0.194144
665 1 0.556503 0.685394 0.391807
1860 1 0.949456 0.358455 0.455651
950 1 0.816996 0.0427377 0.0929342
1067 1 0.605949 0.114897 0.133675
484 1 0.506496 0.113413 0.0433296
2045 1 0.967643 0.0451576 0.204975
1935 1 0.140936 0.44608 0.261008
1500 1 0.161225 0.0269072 0.208684
757 1 0.316499 0.190445 0.1815
1177 1 0.409042 0.208471 0.0188118
9 1 0.488171 0.237322 0.263776
1870 1 0.611228 0.174148 0.265216
433 1 0.756218 0.30356 0.0837825
227 1 0.818086 0.129054 0.17575
1128 1 0.128683 0.400696 0.158217
648 1 0.441071 0.382887 0.22925
442 1 0.380546 0.486693 0.154894
1627 1 0.871747 0.372839 0.146542
691 1 0.828128 0.311011 0.106766
1119 1 0.0701582 0.448509 0.133981
913 1 0.134355 0.5433 0.0996087
725 1 0.956945 0.440868 0.481342
1914 1 0.483958 0.324411 0.0397249
698 1 0.886504 0.113647 0.0180349
1068 1 0.926696 0.523344 0.111466
619 1 0.350599 0.626762 0.150994
2042 1 0.857973 0.447722 0.482787
699 1 0.594783 0.481856 0.174857
1079 1 0.985682 0.344258 0.145625
1111 1 0.144112 0.0453043 0.447589
907 1 0.598214 0.297647 0.446664
1455 1 0.518225 0.462679 0.196344
438 1 0.772486 0.412611 0.155985
801 1 0.0500004 0.248215 0.0580951
1660 1 0.250843 0.489227 0.182371
1472 1 0.26396 0.593118 0.0847953
1980 1 0.631389 0.522337 0.251496
1240 1 0.666466 0.775018 0.19804
287 1 -0.000435237 0.479725 0.143098
1899 1 0.71756 0.266496 0.253031
1516 1 0.717849 0.105506 0.00748815
94 1 0.10429 0.801016 0.156305
1986 1 0.586316 0.565475 0.172091
742 1 0.726934 0.23798 0.447698
1065 1 0.659919 0.401662 0.349873
1877 1 0.871924 0.537222 0.158447
933 1 1.00049 0.532955 0.265382
1085 1 0.510854 0.512256 0.135964
1389 1 0.542505 0.528958 0.0300043
569 1 0.0748159 0.875819 0.148636
1713 1 0.240369 0.625004 0.264353
2023 1 0.50932 0.62731 0.0394222
21 1 0.434711 0.738685 0.0512036
1046 1 0.914943 0.643075 0.261685
1347 1 0.062428 0.719509 0.179499
278 1 0.428208 0.606297 0.241977
255 1 0.744324 0.742259 0.186607
1305 1 0.577038 0.638741 0.160483
888 1 0.00265035 0.890671 0.43426
26 1 0.97025 0.743575 0.0639948
834 1 0.224156 0.0834851 0.126312
1721 1 0.38603 0.706694 0.112441
1939 1 0.638691 0.810672 0.115921
262 1 0.75896 0.635919 0.132545
347 1 0.943926 0.733849 0.129221
2033 1 0.939656 0.334582 0.0232922
1018 1 0.902552 0.250826 0.0547466
1837 1 0.51188 0.783126 0.0411419
647 1 0.42708 0.0466799 0.332867
623 1 0.570099 0.656616 0.00962119
1548 1 0.849629 0.649284 0.487278
330 1 0.0594388 0.814875 0.0291793
1491 1 0.532713 0.0482223 0.170461
1530 1 0.698007 0.808665 0.055391
1490 1 0.693254 0.87129 0.154713
65 1 0.865954 0.844021 0.0530109
403 1 0.72183 0.972089 0.0643753
162 1 0.17004 0.954595 0.0965399
1621 1 0.454636 0.880043 0.149817
792 1 0.645914 0.891525 0.334081
152 1 0.840698 0.99859 0.0291721
864 1 0.905581 0.0484995 0.05096
948 1 0.0985556 0.941255 0.129355
790 1 0.977832 0.951671 0.229385
300 1 0.399185 0.960564 0.168105
1765 1 0.0944409 0.359499 0.454419
36 1 0.314151 0.972252 0.132261
741 1 0.564852 0.974108 0.17918
95 1 0.035826 0.937182 0.288549
1130 1 0.250169 0.178044 0.122256
1351 1 0.0905142 0.963552 0.335384
367 1 0.630866 0.274185 0.171922
1382 1 0.102971 0.0517441 0.344309
917 1 0.116965 0.969505 0.252924
1852 1 0.231387 0.117559 0.276632
480 1 0.0863136 0.669581 0.0216505
1968 1 0.648731 0.242169 0.237233
68 1 0.584634 0.00166127 0.266384
1738 1 0.670608 0.0734955 0.158351
1415 1 0.973453 0.991316 0.325952
544 1 0.902223 0.112067 0.299522
1152 1 0.197948 0.220607 0.173953
1362 1 0.416198 0.131894 0.088916
413 1 0.879174 0.197855 0.305516
1172 1 0.0198166 0.0456081 0.30106
731 1 0.140178 0.301672 0.190732
1477 1 0.100904 0.278586 0.4333
851 1 0.408894 0.19987 0.121141
1562 1 0.550662 0.358102 0.230184
1840 1 0.599474 0.19028 0.387006
956 1 0.541986 0.295924 0.274766
737 1 0.186171 0.333739 0.339398
1732 1 0.149134 0.222523 0.407074
1008 1 0.433938 0.179559 0.260091
1419 1 0.52866 0.376818 0.091274
600 1 0.490647 0.187009 0.411419
209 1 0.695339 0.314943 0.178983
466 1 0.856723 0.186523 0.151846
1248 1 0.958322 0.306794 0.0877276
1 1 0.396893 0.305855 0.0597046
1463 1 0.373021 0.128389 0.300097
1847 1 0.504991 0.231954 0.344006
165 1 0.842494 0.323358 0.267274
463 1 0.985015 0.450057 0.0724082
236 1 0.100964 0.230441 0.187651
906 1 0.261503 0.333604 0.15326
1047 1 0.402043 0.280764 0.130663
1591 1 0.513316 0.24846 0.0355459
1303 1 0.808406 0.227812 0.257747
843 1 0.270494 0.387389 0.21112
957 1 0.979359 0.0271908 0.0468371
149 1 0.500942 0.394903 0.168346
242 1 0.802131 0.237255 0.183995
194 1 0.819493 0.407878 0.0921914
1579 1 0.199865 0.599404 0.165952
931 1 0.482509 0.335535 0.128637
1566 1 0.636681 0.457873 0.314665
910 1 0.988398 0.284999 0.189041
1911 1 0.611873 0.766482 0.487242
1508 1 0.25096 0.463091 0.346028
139 1 0.091855 0.372236 0.367358
822 1 0.313538 0.4519 0.214927
1773 1 0.595431 0.515364 0.424699
561 1 0.894466 0.477658 0.250209
885 1 0.434765 0.574493 0.0186783
1521 1 0.722925 0.454975 0.11786
1049 1 0.951189 0.592024 0.105711
1965 1 0.102174 0.574703 0.169709
983 1 0.184528 0.511528 0.154286
1229 1 0.317625 0.515442 0.0351113
1436 1 0.653819 0.42392 0.0530028
1755 1 0.614573 0.527214 0.325033
506 1 0.731103 0.642799 0.349201
1483 1 0.280429 0.599496 0.174935
595 1 0.625932 0.657685 0.237861
1907 1 0.722447 0.799315 0.150326
847 1 0.572225 0.0910381 0.435536
132 1 0.995574 0.869263 0.223616
34 1 0.111015 0.899164 0.286677
736 1 0.410757 0.764817 0.185935
276 1 0.526097 0.590051 0.110511
1597 1 0.64895 0.526745 0.156765
1274 1 0.575452 0.610881 0.377122
926 1 0.791182 0.683853 0.293965
1641 1 0.907592 0.638359 0.177638
1999 1 0.815484 0.600318 0.173566
1041 1 0.308287 0.734354 0.0966819
1635 1 0.302752 0.90367 0.168087
811 1 0.319568 0.141515 0.475289
1313 1 0.466943 0.675876 0.00930043
1343 1 0.0462018 0.791707 0.217595
1928 1 0.267314 0.745408 0.154286
462 1 0.459468 0.978945 0.293199
1736 1 0.0297118 0.733532 0.0164975
272 1 0.112763 0.904227 0.0545926
432 1 0.533233 0.71259 0.134824
23 1 0.440259 0.119019 0.00092062
410 1 0.771808 0.92188 0.256721
1035 1 0.0420135 0.0511147 0.138227
1636 1 0.0729717 0.869665 0.223089
458 1 0.472298 0.748293 0.114724
400 1 0.399534 0.0865872 0.243776
1934 1 0.538247 0.908755 0.188979
311 1 0.984471 0.0996973 0.265268
398 1 0.772752 0.263024 0.500629
769 1 0.402545 0.931283 0.339673
24 1 0.509855 0.846591 0.223915
1662 1 0.811592 0.81432 0.105236
1340 1 0.169831 0.915406 0.243025
1482 1 0.373795 0.978721 0.237754
1536 1 0.499595 0.110269 0.152709
690 1 0.629956 0.980537 0.19842
2007 1 0.74874 0.090009 0.116907
1750 1 0.127495 0.0854702 0.244514
267 1 0.359114 0.0260515 0.169381
1252 1 0.583364 0.0899515 0.272872
1544 1 0.710985 0.054492 0.239619
380 1 0.621164 0.973189 0.338414
1532 1 0.761298 0.916476 0.182928
823 1 0.0369319 0.0256922 0.227541
1122 1 0.242856 0.0488135 0.449432
437 1 0.457899 0.154118 0.332074
502 1 0.479367 0.0824917 0.400688
1476 1 0.919838 0.0534924 0.394546
807 1 0.905711 0.017496 0.242674
782 1 0.936897 0.9793 0.398812
1206 1 0.248494 0.045734 0.202066
1134 1 0.634565 0.132915 0.415896
11 1 0.155635 0.306374 0.477887
1466 1 0.773796 0.0814481 0.204711
1357 1 0.301582 0.13406 0.257625
1745 1 0.471081 0.266448 0.0906872
1387 1 0.489066 0.25057 0.160148
1631 1 0.525565 0.196944 0.212082
1844 1 0.607932 0.305487 0.23844
1964 1 0.76845 0.169204 0.135653
862 1 0.0134284 0.190391 0.357317
1136 1 0.185132 0.101506 0.198084
1677 1 0.545033 0.127031 0.374996
788 1 0.471211 0.0569147 0.108861
1428 1 0.728465 0.378434 0.215875
1857 1 0.0584535 0.422456 0.252848
16 1 0.0444732 0.143205 0.252346
674 1 0.599699 0.844101 0.494969
448 1 0.190585 0.35181 0.153955
1437 1 0.142406 0.265041 0.26587
893 1 0.525748 0.420848 0.0218078
1833 1 0.559843 0.315024 0.0249131
145 1 0.793574 0.304536 0.210484
977 1 0.0386475 0.219704 0.230825
896 1 0.322023 0.534618 0.159072
814 1 0.43072 0.243231 0.213575
1445 1 0.687759 0.346151 0.273291
371 1 0.93561 0.420091 0.2217
751 1 0.762167 0.305585 0.303583
1159 1 0.0618935 0.508592 0.379079
1260 1 0.917185 0.210448 0.416693
499 1 0.231733 0.553313 0.215448
930 1 0.429062 0.387404 0.129651
1531 1 0.2479 0.425696 0.142325
1238 1 0.381147 0.343463 0.187471
1884 1 0.501059 0.596843 0.276851
1300 1 0.526406 0.544636 0.212199
1386 1 0.709721 0.422564 0.296437
613 1 0.729361 0.506581 0.26878
1748 1 0.879537 0.690633 0.328702
584 1 0.822837 0.749415 0.0460413
870 1 0.0924316 0.67108 0.130852
609 1 0.201731 0.686699 0.22643
259 1 0.30284 0.625624 0.307534
1337 1 0.481264 0.668292 0.226828
1788 1 0.59639 0.514378 0.101557
419 1 0.0915668 0.620846 0.44982
231 1 0.456782 0.531378 0.194925
282 1 0.757892 0.445259 0.234249
891 1 0.137833 0.661509 0.190439
366 1 0.998688 0.756443 0.175542
1672 1 0.534787 0.465194 0.0810697
1271 1 0.488696 0.614406 0.180565
1789 1 0.703575 0.68739 0.406519
1522 1 0.978508 0.807534 0.126674
372 1 0.898742 0.676932 0.109404
764 1 0.851569 0.870263 0.132139
1101 1 0.698252 0.569331 0.232033
1449 1 0.897476 0.583452 0.226406
1673 1 0.343234 0.78234 0.0332311
1882 1 0.508258 0.827455 0.153803
1912 1 0.637684 0.813222 0.253848
519 1 0.6763 0.685995 0.300054
696 1 0.875398 0.785654 0.148236
2021 1 0.908734 0.921543 0.214194
986 1 0.0487719 0.942539 0.197707
1133 1 0.989378 0.824854 0.285144
866 1 0.492326 0.0816057 0.218181
1473 1 0.372041 0.0870313 0.395007
929 1 0.676075 0.746269 0.121806
711 1 0.737074 0.765954 0.37585
153 1 0.896503 0.908613 0.022007
498 1 0.920064 0.0762794 0.15971
734 1 0.24155 0.163761 0.215246
469 1 0.231158 0.910813 0.154839
1842 1 0.713572 0.980576 0.183595
35 1 0.722538 0.736663 0.268221
1396 1 0.227139 0.95705 0.212907
1922 1 0.304 0.965439 0.212466
566 1 0.443928 0.819856 0.23894
1384 1 0.431522 0.0248788 0.235911
87 1 0.528156 0.174363 0.286195
534 1 0.60824 0.740295 0.290969
1638 1 0.761899 0.0039447 0.014486
1273 1 0.991636 0.262945 0.313047
402 1 0.933471 0.878952 0.267306
995 1 0.272006 0.906679 0.356079
1688 1 0.255661 0.971178 0.309677
27 1 0.684416 0.0406329 0.0940465
84 1 0.861051 0.0334595 0.155093
14 1 0.930814 0.00737522 0.159605
1825 1 0.112909 0.959615 0.438066
1599 1 0.305586 0.0553011 0.411326
337 1 0.317329 0.220532 0.301198
1657 1 0.67499 0.041455 0.0179137
1494 1 0.00635499 0.11814 0.382024
1457 1 0.893654 0.883358 0.362845
1692 1 0.967347 0.0618839 0.451343
1853 1 0.433774 0.23616 0.324083
290 1 0.796087 -7.24962e-05 0.174427
355 1 0.931292 0.130648 0.368515
1284 1 0.79605 0.70362 0.4783
905 1 0.229828 0.900471 0.27901
1678 1 0.98907 0.464306 0.249065
501 1 0.389488 0.253663 0.38401
17 1 0.109431 0.375081 0.224545
1904 1 0.982239 0.384789 0.39982
892 1 0.120924 0.334212 0.304094
19 1 0.563321 0.418796 0.327098
1948 1 0.933072 0.224927 0.118392
475 1 0.87398 0.2531 0.359248
1625 1 0.577244 0.753276 0.0197837
1784 1 0.349304 0.38759 0.239265
1124 1 0.316756 0.273328 0.0382931
1168 1 0.490064 0.31249 0.199181
1534 1 0.795353 0.363828 0.417519
219 1 0.83198 0.343578 0.354211
1176 1 0.069102 0.267378 0.285049
1373 1 0.216256 0.247529 0.0818395
1359 1 0.474268 0.457768 0.326333
1353 1 0.933383 0.25398 0.256854
46 1 0.0557067 0.354016 0.170991
54 1 0.899842 0.463502 0.154508
655 1 0.102812 0.45568 0.328293
1829 1 0.556185 0.1726 0.44718
1629 1 0.769695 0.382188 0.283842
483 1 0.877246 0.420582 0.373178
1247 1 0.454413 0.460938 0.241324
1697 1 0.397755 0.415573 0.321069
1601 1 0.315616 0.546256 0.338995
1104 1 0.18982 0.49662 0.257752
1954 1 0.126114 0.482863 0.178487
424 1 0.348426 0.622403 0.235858
672 1 0.808185 0.378005 0.224374
1575 1 0.766098 0.672744 0.20345
22 1 0.667802 0.460623 0.2489
1577 1 0.23638 0.209885 0.281475
1581 1 0.358556 0.529378 0.0934237
82 1 0.18745 0.216433 0.00738457
331 1 0.465859 0.442779 0.102389
507 1 0.942844 0.559789 0.316504
354 1 0.859773 0.558712 0.301454
1464 1 0.276775 0.67469 0.196651
412 1 0.388877 0.555084 0.207666
994 1 0.740215 0.499907 0.34966
1403 1 0.658652 0.635983 0.371061
637 1 0.649671 0.736836 0.428071
1103 1 0.0515158 0.698898 0.327937
985 1 0.210678 0.631106 0.34412
1354 1 0.373912 0.570627 0.282239
487 1 0.366685 0.850935 0.313311
1277 1 0.814135 0.50865 0.228429
1421 1 0.692559 0.666824 0.203728
384 1 0.0272556 0.655092 0.404512
1175 1 0.154625 0.644736 0.270813
746 1 0.253024 0.784448 0.227394
1746 1 0.323495 0.84556 0.221825
1622 1 0.339475 0.716787 0.168188
275 1 0.566293 0.712982 0.234844
543 1 0.894108 0.704704 0.222091
335 1 0.151666 0.881351 0.161203
1280 1 0.426803 0.794342 0.332627
1782 1 0.611605 0.725373 0.176706
1880 1 0.936309 0.877683 0.0798889
618 1 0.424428 0.862222 0.367697
1426 1 0.505879 0.70826 0.0583168
631 1 0.532833 0.724753 0.468367
1650 1 0.669969 0.756663 0.331233
553 1 0.0439769 0.635463 0.176795
1376 1 0.0429794 0.882137 0.0685747
1849 1 0.405809 0.681873 0.223693
2019 1 0.517565 0.837387 0.36757
63 1 0.717155 0.870858 0.473437
570 1 0.388178 0.844137 0.140075
321 1 0.326842 0.944047 0.328413
473 1 0.360958 0.962446 0.402079
908 1 0.556327 0.787582 0.247392
226 1 0.572097 0.940562 0.388717
459 1 0.806551 0.762754 0.346088
1885 1 0.369886 0.799942 0.376849
1864 1 0.392752 0.910191 0.262838
67 1 0.538489 0.948273 0.262732
405 1 0.828596 0.733915 0.217107
633 1 0.387263 0.188121 0.352367
580 1 0.469777 0.981508 0.189436
607 1 0.741228 0.803155 0.231806
1099 1 0.307006 0.908333 0.266378
183 1 0.261252 0.20313 0.450097
1961 1 0.268983 0.175516 0.34394
2016 1 0.618995 0.884835 0.177788
1086 1 0.86011 0.962818 0.441106
1458 1 0.106121 0.152378 0.198131
1598 1 0.315968 0.111402 0.341771
767 1 0.188001 0.000857638 0.271407
1647 1 0.359663 0.0233716 0.362371
2001 1 0.594113 0.902384 0.442665
715 1 0.730746 0.194341 0.285334
392 1 0.961556 0.0685857 0.342931
1719 1 0.266807 0.304288 0.313469
1872 1 0.761907 0.108838 0.394807
2041 1 0.594237 0.227998 0.312433
1681 1 0.910564 0.125251 0.210897
1207 1 0.158107 0.212979 0.312702
1606 1 0.146748 0.995511 0.381356
445 1 0.329827 0.26647 0.445722
33 1 0.586708 0.370801 0.455639
1761 1 0.649033 0.171241 0.133336
1580 1 0.975251 0.285682 0.460603
641 1 0.17953 0.179907 0.459658
594 1 0.268188 0.236927 0.225218
579 1 0.414763 0.633155 0.45509
1374 1 0.359121 0.255888 0.243486
1131 1 0.847869 0.303838 0.416074
1093 1 0.794511 0.250442 0.336505
382 1 0.90624 0.330999 0.207715
706 1 0.0884742 0.215456 0.108841
524 1 0.0211352 0.338053 0.440939
1820 1 0.266544 0.372182 0.286682
1346 1 0.805187 0.172452 0.0276975
563 1 0.281781 0.294533 0.39234
220 1 0.612224 0.337069 0.367084
783 1 0.00422619 0.41344 0.309123
81 1 0.90032 0.496649 0.328193
2030 1 0.0350414 0.690842 0.475027
901 1 0.978438 0.358571 0.217088
1892 1 0.496542 0.370235 0.277318
118 1 0.340205 0.229149 0.12149
793 1 0.830911 0.442802 0.198955
1890 1 0.0178056 0.418134 0.186302
1404 1 0.214075 0.27869 0.264518
565 1 0.0516835 0.562588 0.311621
364 1 0.942388 0.523816 0.475712
1902 1 0.244383 0.452147 0.25402
1188 1 0.730237 0.366958 0.349714
1850 1 0.831803 0.222767 0.470726
1170 1 0.16072 0.404501 0.350105
378 1 0.265404 0.36905 0.367137
658 1 0.504234 0.749398 0.204641
1909 1 0.440877 0.775724 0.411414
69 1 0.413979 0.317088 0.254418
934 1 0.675809 0.565789 0.339087
1942 1 0.986898 0.491188 0.333694
414 1 0.084352 0.638928 0.303592
393 1 0.176697 0.84376 0.228556
515 1 0.256245 0.427653 0.416811
1416 1 0.304871 0.53597 0.237486
285 1 0.555262 0.508677 0.285
1267 1 0.124976 0.538763 0.325684
1604 1 0.189869 0.740072 0.0303968
217 1 0.632266 0.399095 0.205561
1779 1 0.0963558 0.672574 0.383812
1158 1 0.117726 0.733327 0.234836
1793 1 0.177469 0.572886 0.291705
1278 1 0.00663309 0.658842 0.281303
964 1 0.413577 0.746061 0.261581
205 1 0.65812 0.61499 0.2878
497 1 0.830577 0.810499 0.396844
336 1 0.0435667 0.506222 0.204165
1182 1 0.00943999 0.747491 0.284312
722 1 0.352301 0.750448 0.313312
1813 1 0.572601 0.769653 0.399011
196 1 0.857237 0.907963 0.296848
1030 1 0.926564 0.771675 0.223338
348 1 0.971771 0.944011 0.154275
1442 1 0.360791 0.774443 0.12645
912 1 0.484863 0.99495 0.386642
677 1 0.502986 0.737959 0.385804
743 1 0.668377 0.968099 0.264193
1866 1 0.792316 0.76812 0.275627
638 1 0.969598 0.710946 0.22805
730 1 0.94349 0.87676 0.161451
1011 1 0.0479373 0.959073 0.406657
1694 1 0.270076 0.759934 0.312928
1855 1 0.285878 0.991609 0.372545
1418 1 0.920911 0.910735 0.426715
1132 1 0.133077 0.13093 0.411861
52 1 0.219962 0.830608 0.308067
1294 1 0.298022 0.830773 0.416791
1787 1 0.554158 0.835657 0.429471
1141 1 0.596475 0.886811 0.246862
1311 1 0.826198 0.894408 0.217806
748 1 0.0599547 0.888543 0.376065
1950 1 0.32523 0.0601187 0.234996
45 1 0.349609 0.883181 0.37895
1764 1 0.575325 0.804794 0.176171
1377 1 0.831557 0.104313 0.362099
44 1 0.0479737 0.11128 0.321279
2008 1 0.459355 0.179782 0.172022
581 1 0.745869 0.979812 0.353884
799 1 0.852825 0.0544479 0.304704
1014 1 0.0259825 0.435761 0.468213
1709 1 0.730165 0.689137 0.00396856
1196 1 0.428367 0.911577 0.493302
472 1 0.774142 0.833558 0.316934
1012 1 0.00168911 0.0187809 0.398876
1983 1 0.0446807 0.229178 0.418639
583 1 0.277743 0.0434929 0.286596
1792 1 0.188593 0.0907419 0.389697
530 1 0.429205 0.143391 0.394826
1348 1 0.661016 0.114432 0.294467
1185 1 0.772925 0.0214495 0.267194
2025 1 0.847462 0.0357576 0.379003
968 1 0.0964605 0.193211 0.267655
601 1 0.722349 0.0335296 0.445052
803 1 0.648473 0.253384 0.389319
1388 1 0.754357 0.117597 0.272674
1081 1 0.746715 0.015223 0.121779
320 1 0.0818349 0.234855 0.353553
1537 1 0.403595 0.371189 0.418197
622 1 0.556053 0.270553 0.190508
997 1 0.611809 0.436905 0.410787
160 1 0.623901 0.669023 0.442306
1898 1 0.18587 0.160808 0.354379
211 1 0.863851 0.194032 0.226366
129 1 0.683887 0.390058 0.454606
150 1 0.267274 0.311935 0.479667
1151 1 0.342542 0.371818 0.348774
1045 1 0.528558 0.339731 0.348184
1084 1 0.43579 0.302924 0.4172
1859 1 0.612664 0.371893 0.287182
959 1 0.854518 0.387067 0.303307
732 1 0.274214 0.574493 0.483872
1406 1 0.179384 0.414411 0.43185
1074 1 0.295114 0.496626 0.394356
756 1 0.311124 0.318046 0.250099
130 1 0.255592 0.261906 0.14594
1322 1 0.348438 0.324521 0.411295
1029 1 0.821784 0.515169 0.449608
1475 1 0.642454 0.195161 0.449391
434 1 0.900323 0.493491 0.41315
1164 1 0.923699 0.801255 0.0734639
1886 1 0.328509 0.462337 0.334467
249 1 0.695366 0.0829361 0.376817
815 1 0.213186 0.530248 0.438982
340 1 0.482142 0.12658 0.466529
540 1 0.474049 0.307595 0.315914
341 1 0.720108 0.23531 0.365419
1456 1 0.00494667 0.552519 0.372843
230 1 0.137611 0.549793 0.232309
1268 1 0.0444196 0.592764 0.247076
1323 1 0.429536 0.522881 0.324669
1187 1 0.396194 0.536723 0.442698
532 1 0.0785698 0.49333 0.266471
1824 1 0.479207 0.525074 0.270401
135 1 0.876988 0.382284 0.459626
1652 1 0.774741 0.432062 0.34336
1554 1 0.801015 0.511974 0.311645
922 1 0.888328 0.614305 0.338095
315 1 0.24459 0.59835 0.410922
136 1 0.0810039 0.611581 0.0879264
416 1 0.128039 0.712086 0.30654
1441 1 0.467756 0.653956 0.322512
90 1 0.622628 0.707685 0.359645
1114 1 0.967935 0.622655 0.356837
1147 1 0.950193 0.628529 0.432235
1217 1 0.186122 0.763958 0.246371
575 1 0.288994 0.763927 0.39327
1781 1 0.329727 0.767503 0.230017
1608 1 0.379715 0.648292 0.324433
721 1 0.817293 0.700277 0.382461
1050 1 0.204868 0.708255 0.358776
198 1 0.124594 0.843386 0.337471
1807 1 0.572377 0.822887 0.308026
85 1 0.949884 0.706728 0.30434
505 1 0.346369 0.326249 0.48793
1241 1 0.24906 0.87204 0.217629
749 1 0.355775 0.28754 0.315266
1413 1 0.497151 0.876081 0.453099
558 1 0.617168 0.0716433 0.0629972
1467 1 0.165486 0.950798 0.316505
1070 1 0.0331384 0.508374 0.4626
1949 1 0.42794 0.842651 0.444253
1295 1 0.960599 0.130213 0.0605947
1156 1 0.295062 0.832349 0.290686
1371 1 0.388379 0.0938342 0.48098
521 1 0.59697 0.587062 0.0338541
447 1 0.618178 0.373086 0.0111472
1314 1 0.87025 0.722509 0.449627
1559 1 0.887913 0.853947 0.46604
108 1 0.0353007 0.812725 0.429146
1637 1 0.194758 0.418742 0.206046
614 1 0.818996 0.889597 0.380346
1768 1 0.825424 0.985282 0.30078
967 1 0.210807 0.848899 0.460812
284 1 0.12604 0.865399 0.406548
1160 1 0.248059 0.0617585 0.356714
1794 1 0.286294 0.986292 0.444863
13 1 0.303226 0.91182 0.42945
193 1 0.603713 0.834939 0.379817
158 1 0.624769 0.985774 0.447688
704 1 0.71317 0.917266 0.314413
1186 1 0.364155 0.784087 0.468015
1349 1 0.659786 0.181664 0.0492582
1941 1 0.260565 0.0220559 0.0701092
1338 1 0.556634 0.2962 0.113726
50 1 0.547136 0.994043 0.333381
1796 1 0.196626 0.735704 0.156532
206 1 0.608283 0.729288 0.0880882
895 1 0.931012 0.431359 0.30087
1259 1 0.31667 0.0654027 0.485503
605 1 0.41941 0.206555 0.451733
1819 1 0.428254 0.0233876 0.426672
1331 1 0.657534 0.936121 0.397517
1851 1 0.250818 0.46165 0.0273312
1936 1 0.365171 0.879326 0.469153
1967 1 0.173667 0.915117 0.445555
643 1 0.072639 0.245787 0.497921
2047 1 0.854664 0.18606 0.376609
1427 1 0.964327 0.143779 0.447282
1365 1 0.010244 0.378976 0.0356359
1695 1 0.99569 0.669769 0.133416
172 1 0.225835 0.254747 0.365911
2022 1 0.807259 0.645804 0.00814519
2043 1 0.482844 0.795047 0.477158
253 1 0.496035 0.0585974 0.312202
831 1 0.717878 0.143627 0.342375
719 1 0.703291 0.106196 0.488144
75 1 0.927853 0.358941 0.268808
1550 1 0.0434028 0.0745864 0.429801
446 1 0.241542 0.534328 0.0326673
1524 1 0.157891 0.589877 0.41681
361 1 0.625035 0.0503318 0.333092
1191 1 0.922207 0.660024 0.49671
244 1 0.710839 0.868233 0.0148625
292 1 0.894246 0.461292 0.0704296
1799 1 0.358098 0.403341 0.148723
1905 1 0.720024 0.442732 0.394729
973 1 0.743377 0.860621 0.377696
516 1 0.536582 0.558311 0.410054
1095 1 0.834689 0.323132 0.496483
263 1 0.676671 0.311727 0.336846
1509 1 0.950074 0.563883 0.0139517
489 1 0.192073 0.116224 0.00470888
177 1 0.793273 0.477082 0.0445718
620 1 0.822164 0.445509 0.274509
960 1 0.789749 0.438482 0.434639
1630 1 0.272255 0.470773 0.48554
663 1 0.339595 0.397432 0.443384
1772 1 0.122473 0.699432 0.476619
664 1 0.920449 0.304197 0.404195
1368 1 0.114883 0.369801 0.0837726
1363 1 0.368731 0.507685 0.377466
1299 1 0.254102 0.69656 0.0485558
1871 1 0.679186 0.325797 0.0506124
71 1 0.379977 0.706206 0.451966
836 1 0.382695 0.484721 0.274095
675 1 0.564963 0.254101 0.381428
1126 1 0.813812 0.554343 0.389749
1281 1 0.0400518 0.432206 0.368993
1025 1 0.254952 0.695075 0.280286
855 1 0.377351 0.995145 0.484576
1812 1 0.260512 0.668292 0.402706
883 1 0.539856 0.493673 0.357511
632 1 0.0978547 0.601709 0.366708
693 1 0.408119 0.578866 0.368815
117 1 0.788857 0.579751 0.270874
1876 1 0.810129 0.617439 0.330874
1644 1 0.335047 0.699084 0.255207
1517 1 0.986392 0.758391 0.353292
1762 1 0.307656 0.638026 0.460235
1454 1 0.483993 0.572557 0.344496