ITEM: TIMESTEP
100000
ITEM: NUMBER OF ATOMS
2048
ITEM: BOX BOUNDS pp pp pp
0.0000000000000000e+00 1.1351867295763070e+01
0.0000000000000000e+00 1.1351867295763070e+01
0.0000000000000000e+00 1.1351867295763070e+01
ITEM: ATOMS id type xs ys zs
3 1 0.0582779 0.996912 0.0631548
53 1 0.622622 0.125228 -0.00177078
19 1 0.566672 -0.000661455 0.05573
23 1 0.685481 0.00320052 0.0622309
1066 1 0.310113 0.189851 0.502929
1024 1 0.86533 0.93466 0.436851
98 1 0.0653728 0.443102 -0.00273148
12 1 0.245821 0.0656063 0.0581432
106 1 0.31286 0.445832 0.00531738
20 1 0.492785 0.0622412 0.0661712
24 1 0.621393 0.0646639 0.0623092
1038 1 0.441073 0.0599475 0.502445
28 1 0.749014 0.061094 0.0623667
1004 1 0.251769 0.941839 0.434301
32 1 0.87614 0.0598292 0.0590003
1085 1 0.882787 0.123611 0.500055
35 1 0.0634347 0.1203 0.0650079
1278 1 0.932456 0.937066 0.500561
775 1 0.185292 0.999117 0.433769
47 1 0.439537 0.129513 0.0621134
51 1 0.566618 0.126918 0.0633452
62 1 0.940466 0.190943 0.00376247
55 1 0.686295 0.124444 0.0630978
66 1 0.0648662 0.310898 -0.000718752
202 1 0.313727 0.814605 0.0083848
63 1 0.939449 0.120561 0.0626164
1117 1 0.873252 0.247451 0.499412
44 1 0.25014 0.189097 0.0572321
1078 1 0.686825 0.188437 0.495383
1057 1 1.00038 0.125103 0.496688
1193 1 0.249104 0.625581 0.50108
64 1 0.874743 0.184473 0.065274
1098 1 0.308735 0.31198 0.499633
1012 1 0.499918 0.940585 0.436528
67 1 0.0671355 0.250698 0.0618938
33 1 0.000408789 0.129173 -0.000371959
1007 1 0.429951 0.869404 0.435438
75 1 0.317551 0.249689 0.0610417
83 1 0.560074 0.246531 0.0613987
1270 1 0.686533 0.938907 0.500715
72 1 0.129581 0.313705 0.059301
1008 1 0.377394 0.939255 0.428641
30 1 0.941625 0.0597874 0.00588248
84 1 0.502705 0.320113 0.0625048
88 1 0.628199 0.312396 0.0680324
99 1 0.0654094 0.376628 0.0593504
103 1 0.18628 0.381857 0.0659668
107 1 0.30998 0.373172 0.0602677
1000 1 0.123949 0.936 0.435116
111 1 0.439682 0.374454 0.0577789
115 1 0.560222 0.381764 0.0627282
234 1 0.304849 0.935038 0.00252878
1093 1 0.122348 0.250684 0.494093
100 1 0.000431004 0.434502 0.0610026
104 1 0.120494 0.444455 0.0617093
108 1 0.250137 0.447414 0.0639361
1019 1 0.812739 0.868039 0.43721
116 1 0.498887 0.444191 0.0602033
1015 1 0.688876 0.879811 0.437709
128 1 0.879107 0.438481 0.0564684
229 1 0.122682 0.883108 0.00435632
49 1 0.502063 0.123325 0.0069402
14 1 0.434755 0.0614564 0.00255542
1003 1 0.309257 0.880186 0.439113
143 1 0.437488 0.501572 0.0647013
999 1 0.192367 0.87254 0.435971
147 1 0.563286 0.501144 0.057055
151 1 0.687872 0.496311 0.0613408
995 1 0.061272 0.87353 0.429001
1042 1 0.566909 0.0656718 0.502282
1090 1 0.0581329 0.306362 0.500127
1202 1 0.563057 0.685726 0.499753
134 1 0.182865 0.566335 -0.000646358
148 1 0.497832 0.555233 0.0604737
152 1 0.628858 0.56065 0.0566161
156 1 0.747704 0.556774 0.0575742
6 1 0.183252 0.0605105 0.000243662
160 1 0.868641 0.560203 0.0616229
1261 1 0.369369 0.872577 0.500669
1118 1 0.938914 0.309251 0.502992
1233 1 0.501633 0.750939 0.498432
1058 1 0.0605057 0.185782 0.50198
175 1 0.440539 0.629426 0.0556206
179 1 0.563451 0.623557 0.0672147
183 1 0.690968 0.626302 0.0596731
992 1 0.873126 0.80631 0.439949
102 1 0.187378 0.44612 0.00440409
81 1 0.498399 0.254331 0.00269795
168 1 0.124282 0.687953 0.0634847
988 1 0.750445 0.808389 0.441873
184 1 0.622767 0.685049 0.0584964
188 1 0.753079 0.687251 0.0599613
984 1 0.625727 0.802648 0.434895
1089 1 -0.000160315 0.243544 0.499548
195 1 0.0567064 0.754837 0.0619697
199 1 0.188223 0.749887 0.0600368
203 1 0.319176 0.748955 0.0700651
207 1 0.443988 0.742557 0.0600932
980 1 0.503932 0.811038 0.436051
211 1 0.569129 0.750594 0.064729
215 1 0.696507 0.75159 0.0541255
976 1 0.375082 0.810075 0.429413
204 1 0.246149 0.810336 0.0676998
208 1 0.380847 0.810811 0.0590337
212 1 0.508641 0.806924 0.0649197
216 1 0.627485 0.810168 0.0637452
220 1 0.753063 0.813801 0.0618395
70 1 0.191582 0.316755 -0.00229505
249 1 0.751655 0.877556 0.000523655
235 1 0.315982 0.876743 0.0647122
243 1 0.564986 0.871888 0.0601211
247 1 0.687428 0.875115 0.0636576
251 1 0.812427 0.877006 0.0604041
255 1 0.938631 0.878081 0.0629299
228 1 0.995166 0.942669 0.0633064
236 1 0.248071 0.933329 0.0669773
244 1 0.505773 0.937122 0.0630984
105 1 0.24416 0.385741 0.0081775
252 1 0.743086 0.940109 0.0693578
22 1 0.688747 0.063669 0.00290952
256 1 0.877764 0.937017 0.0621797
972 1 0.253236 0.812652 0.435047
11 1 0.303496 -0.00027761 0.0651558
25 1 0.748723 0.995889 0.00198514
27 1 0.811819 0.997883 0.0620956
31 1 0.936743 -0.00129857 0.0665899
8 1 0.125441 0.062941 0.0649911
265 1 0.243564 0.998645 0.12292
15 1 0.439622 0.999804 0.0625693
277 1 0.622155 0.99614 0.117628
281 1 0.75359 1.00171 0.127318
282 1 0.811208 0.063217 0.121517
262 1 0.185573 0.0628152 0.123423
266 1 0.308432 0.0656397 0.125518
16 1 0.370238 0.0633234 0.0619522
274 1 0.560416 0.0619986 0.121658
278 1 0.689597 0.0605572 0.120819
286 1 0.936782 0.0669199 0.125253
4 1 -0.00148586 0.0589868 0.0660412
293 1 0.125976 0.128336 0.123975
39 1 0.186562 0.122542 0.0623403
43 1 0.311019 0.130446 0.0543601
301 1 0.375401 0.126211 0.1249
305 1 0.49827 0.127044 0.120861
309 1 0.623604 0.120812 0.123154
59 1 0.815665 0.121143 0.0557321
317 1 0.869706 0.121731 0.124904
289 1 0.00213796 0.122317 0.125523
40 1 0.130796 0.186038 0.0626281
294 1 0.1918 0.191385 0.125082
298 1 0.308937 0.18909 0.125642
48 1 0.372276 0.186262 0.0585849
52 1 0.499954 0.188781 0.0599075
56 1 0.624038 0.191085 0.0629607
310 1 0.689657 0.184999 0.124838
60 1 0.755838 0.183665 0.0680948
318 1 0.939308 0.18449 0.121429
36 1 0.00728587 0.191609 0.0587229
325 1 0.129514 0.248758 0.122359
71 1 0.190119 0.254816 0.0601268
329 1 0.247589 0.254544 0.124803
333 1 0.378733 0.245976 0.124246
79 1 0.440696 0.251328 0.0622033
337 1 0.502659 0.253069 0.125107
341 1 0.622848 0.249945 0.126915
87 1 0.686953 0.24929 0.0626424
91 1 0.810843 0.247408 0.0685487
349 1 0.880163 0.250502 0.12259
95 1 0.939639 0.255021 0.0591477
321 1 0.00301678 0.245705 0.12206
322 1 0.0659125 0.309122 0.120742
326 1 0.190534 0.321642 0.122141
76 1 0.253438 0.307651 0.061716
80 1 0.374731 0.307969 0.0668842
342 1 0.693341 0.311649 0.123955
92 1 0.749841 0.310361 0.0638584
96 1 0.877188 0.311985 0.0627356
68 1 0.00654294 0.310832 0.0644039
353 1 0.0023904 0.377209 0.122753
357 1 0.127524 0.38397 0.126421
365 1 0.37513 0.378825 0.125504
369 1 0.504214 0.382965 0.127482
373 1 0.624147 0.381489 0.121403
119 1 0.68753 0.372318 0.0629381
123 1 0.812547 0.377303 0.0570069
127 1 0.939851 0.374001 0.0571722
354 1 0.0611007 0.44068 0.12542
112 1 0.378321 0.437288 0.060284
366 1 0.438323 0.438417 0.123457
370 1 0.558048 0.44174 0.12236
120 1 0.624929 0.442564 0.0576236
124 1 0.746159 0.435649 0.0636648
131 1 0.061905 0.505391 0.0627855
135 1 0.181631 0.505929 0.0629535
393 1 0.247672 0.508492 0.125369
139 1 0.309965 0.515153 0.0590922
397 1 0.372033 0.508779 0.119694
401 1 0.494729 0.500535 0.126895
409 1 0.749657 0.497994 0.126654
155 1 0.811888 0.494119 0.0609553
413 1 0.877994 0.494204 0.125467
159 1 0.933769 0.506021 0.066081
136 1 0.121988 0.5658 0.065036
390 1 0.180652 0.559513 0.125807
140 1 0.248047 0.573342 0.0706689
144 1 0.375712 0.569306 0.0622983
402 1 0.563172 0.56083 0.120153
406 1 0.686857 0.558424 0.126053
132 1 0.000690747 0.560891 0.0577867
163 1 0.0619457 0.622672 0.0612302
421 1 0.120071 0.625206 0.12673
167 1 0.183755 0.628034 0.0675873
171 1 0.308551 0.635038 0.0593365
429 1 0.375795 0.631677 0.124327
433 1 0.494691 0.623923 0.117904
437 1 0.630465 0.621331 0.128055
187 1 0.810582 0.626033 0.0577725
191 1 0.932585 0.626178 0.0594054
164 1 -0.000526056 0.688169 0.0606114
418 1 0.0611955 0.689826 0.123487
172 1 0.247336 0.688497 0.0647124
176 1 0.378641 0.68711 0.0628552
180 1 0.503879 0.686446 0.0596031
434 1 0.561565 0.686869 0.126082
438 1 0.687764 0.690028 0.115696
442 1 0.808658 0.683736 0.123683
192 1 0.870206 0.688601 0.0599687
453 1 0.119902 0.74974 0.129042
461 1 0.37963 0.749492 0.124132
465 1 0.503178 0.745523 0.127118
469 1 0.630366 0.755953 0.129546
473 1 0.749696 0.74667 0.126551
219 1 0.812137 0.751379 0.061425
223 1 0.932952 0.754795 0.0594661
196 1 -0.00100482 0.816876 0.0607143
450 1 0.0603787 0.812407 0.121274
200 1 0.122489 0.815329 0.0638423
454 1 0.183913 0.808674 0.124149
458 1 0.31705 0.810452 0.121239
462 1 0.444157 0.805024 0.120851
466 1 0.568312 0.815104 0.12675
470 1 0.692803 0.815612 0.128559
474 1 0.8103 0.814732 0.122359
224 1 0.876943 0.81423 0.0615478
227 1 0.0614556 0.881885 0.0659305
231 1 0.185649 0.882443 0.0671436
489 1 0.248454 0.872809 0.129821
493 1 0.377478 0.872687 0.12234
239 1 0.438065 0.871225 0.0633164
497 1 0.507052 0.875872 0.120184
501 1 0.630297 0.870439 0.125103
505 1 0.745555 0.878023 0.129848
509 1 0.871258 0.871486 0.124027
482 1 0.057352 0.936817 0.127066
232 1 0.122795 0.939219 0.0654575
490 1 0.30833 0.93467 0.130342
240 1 0.370805 0.93985 0.0664362
498 1 0.569081 0.933948 0.123345
248 1 0.628449 0.932769 0.0628016
506 1 0.813364 0.937327 0.121618
7 1 0.190698 0.999336 0.0605664
269 1 0.373947 0.999245 0.125029
257 1 0.995263 0.996138 0.132735
261 1 0.119178 0.997166 0.129853
267 1 0.308754 0.00481329 0.183044
279 1 0.685422 0.0022151 0.192125
258 1 0.060052 0.0578994 0.127464
268 1 0.248039 0.063058 0.189615
270 1 0.435637 0.0633723 0.124498
276 1 0.501411 0.0638341 0.182461
284 1 0.748754 0.0560665 0.193689
260 1 0.00183355 0.06516 0.189247
295 1 0.18961 0.12315 0.182782
297 1 0.248726 0.1278 0.122658
299 1 0.311935 0.123475 0.185206
307 1 0.564354 0.120472 0.185017
311 1 0.692704 0.119193 0.181456
313 1 0.750042 0.118984 0.124147
315 1 0.806443 0.118645 0.186289
319 1 0.932301 0.129418 0.189261
290 1 0.066205 0.19176 0.123266
296 1 0.130524 0.187902 0.184771
300 1 0.250943 0.186522 0.188135
302 1 0.43748 0.185078 0.121657
308 1 0.495993 0.18199 0.188521
306 1 0.558695 0.188164 0.122886
312 1 0.627204 0.182257 0.190111
316 1 0.754901 0.187863 0.18485
314 1 0.815457 0.183856 0.126549
320 1 0.875596 0.193029 0.185917
292 1 1.00009 0.18816 0.185456
323 1 0.0709831 0.249752 0.186148
327 1 0.189062 0.254382 0.186626
331 1 0.314105 0.249501 0.185628
343 1 0.688642 0.250748 0.188642
345 1 0.749592 0.251205 0.126214
328 1 0.124276 0.322166 0.188922
332 1 0.248826 0.310679 0.188947
330 1 0.309888 0.317111 0.126621
336 1 0.38262 0.318413 0.18083
334 1 0.440026 0.313018 0.121656
338 1 0.560523 0.310847 0.122795
346 1 0.814497 0.308239 0.125039
350 1 0.940201 0.312757 0.12232
324 1 0.998727 0.309807 0.186024
359 1 0.188072 0.376758 0.186079
361 1 0.252092 0.378809 0.124103
363 1 0.313565 0.385165 0.183587
367 1 0.444788 0.378638 0.185484
377 1 0.754679 0.374508 0.124435
381 1 0.878284 0.375544 0.123218
356 1 0.000981934 0.440046 0.185398
360 1 0.126919 0.442055 0.188657
358 1 0.194129 0.438869 0.127755
364 1 0.251723 0.442891 0.189615
362 1 0.31505 0.443411 0.11898
368 1 0.379946 0.434386 0.18654
372 1 0.496609 0.442615 0.18989
376 1 0.626216 0.436698 0.189651
374 1 0.689662 0.434649 0.12809
378 1 0.812386 0.434289 0.128543
384 1 0.882744 0.433355 0.183426
382 1 0.938316 0.437081 0.120335
387 1 0.0592739 0.505809 0.191598
389 1 0.126254 0.499763 0.127597
391 1 0.188373 0.498515 0.187694
399 1 0.431888 0.504716 0.190849
405 1 0.622347 0.502245 0.121201
407 1 0.684485 0.497163 0.186506
411 1 0.812064 0.50252 0.188522
385 1 0.994219 0.504265 0.12686
386 1 0.061611 0.561422 0.122016
392 1 0.121591 0.568336 0.193511
396 1 0.246731 0.56242 0.189868
394 1 0.311623 0.572536 0.123026
398 1 0.43687 0.56414 0.126029
412 1 0.74852 0.561876 0.183867
410 1 0.80799 0.562877 0.117973
416 1 0.871916 0.561149 0.187277
414 1 0.932028 0.567282 0.124858
419 1 0.0569049 0.623342 0.193119
423 1 0.183501 0.628571 0.195392
425 1 0.242653 0.629313 0.131755
427 1 0.310846 0.629519 0.182676
435 1 0.555361 0.619508 0.185905
441 1 0.748539 0.624246 0.119403
445 1 0.865961 0.622035 0.122917
417 1 0.997309 0.623897 0.124049
422 1 0.177143 0.687214 0.130811
426 1 0.312255 0.688537 0.12633
430 1 0.437881 0.68839 0.127661
436 1 0.501752 0.685495 0.189554
440 1 0.620473 0.682055 0.189006
446 1 0.938177 0.686043 0.123013
449 1 0.994199 0.751885 0.118097
451 1 0.0589401 0.74851 0.188845
457 1 0.248335 0.750534 0.126717
459 1 0.314885 0.750805 0.184916
467 1 0.563981 0.750066 0.188482
471 1 0.688723 0.743022 0.190403
475 1 0.806607 0.744673 0.183817
477 1 0.871225 0.750578 0.123353
479 1 0.934908 0.748591 0.184377
464 1 0.373424 0.812657 0.186704
472 1 0.630583 0.805986 0.195886
476 1 0.748897 0.805848 0.187402
480 1 0.869744 0.81083 0.184989
478 1 0.934621 0.81016 0.124526
481 1 0.994651 0.876314 0.125234
485 1 0.121647 0.875728 0.121609
491 1 0.311418 0.87708 0.18787
499 1 0.572115 0.871975 0.188922
507 1 0.808667 0.876064 0.185715
486 1 0.182505 0.940711 0.126655
492 1 0.243729 0.937653 0.189853
496 1 0.374886 0.935795 0.183687
494 1 0.443215 0.933505 0.118554
500 1 0.507925 0.931195 0.18045
502 1 0.687849 0.939756 0.128332
512 1 0.869982 0.936668 0.193644
510 1 0.92998 0.936059 0.130242
271 1 0.439221 0.989308 0.183704
273 1 0.501562 0.999038 0.119889
508 1 0.746805 0.937097 0.187535
285 1 0.869749 0.00390445 0.126886
521 1 0.248591 0.998493 0.251284
272 1 0.370495 0.0601787 0.181649
529 1 0.496133 0.00176218 0.243634
533 1 0.627123 0.00516176 0.253312
283 1 0.812415 0.998593 0.204012
541 1 0.881344 0.00505721 0.251255
513 1 0.992819 1.00001 0.250854
514 1 0.0633651 0.0627524 0.250615
264 1 0.127363 0.0580494 0.182671
518 1 0.185306 0.0623368 0.24736
280 1 0.628941 0.0632663 0.182927
538 1 0.819072 0.0651675 0.252706
288 1 0.869956 0.0656045 0.186951
542 1 0.94085 0.0658103 0.251445
291 1 0.0614242 0.12867 0.187565
549 1 0.120838 0.123349 0.244931
553 1 0.250665 0.120305 0.254838
303 1 0.433881 0.118682 0.184974
565 1 0.633055 0.123963 0.24874
569 1 0.748329 0.121516 0.248669
545 1 0.00666777 0.122874 0.255586
550 1 0.190902 0.176265 0.248111
304 1 0.379711 0.185128 0.184926
570 1 0.810962 0.182768 0.246248
581 1 0.130751 0.252603 0.248898
589 1 0.37377 0.255775 0.244534
335 1 0.437827 0.248085 0.179669
339 1 0.564083 0.247131 0.183185
597 1 0.62454 0.250007 0.244595
601 1 0.754131 0.245889 0.246279
347 1 0.810748 0.248389 0.186075
351 1 0.93689 0.251157 0.188643
578 1 0.0614001 0.314602 0.249976
582 1 0.188575 0.311418 0.247612
586 1 0.30931 0.31722 0.248726
590 1 0.436392 0.309044 0.248248
340 1 0.505315 0.314227 0.188437
594 1 0.566612 0.31499 0.245328
344 1 0.627507 0.314819 0.182128
348 1 0.755323 0.309771 0.185899
352 1 0.874672 0.312407 0.18321
355 1 0.0623546 0.383426 0.183472
613 1 0.125409 0.378751 0.251859
617 1 0.248527 0.376153 0.251851
621 1 0.374408 0.374742 0.250927
625 1 0.500191 0.375974 0.249714
371 1 0.564058 0.376917 0.189346
375 1 0.68855 0.37575 0.18639
379 1 0.817138 0.374481 0.186212
637 1 0.878731 0.368562 0.250925
383 1 0.940592 0.374591 0.185864
618 1 0.314452 0.433039 0.252738
622 1 0.433284 0.43431 0.255219
380 1 0.750048 0.441488 0.18885
634 1 0.807698 0.433173 0.247377
638 1 0.939891 0.433819 0.250901
641 1 0.994241 0.498098 0.254003
395 1 0.321628 0.498507 0.185513
653 1 0.373837 0.501909 0.257255
403 1 0.559277 0.501232 0.182482
665 1 0.745057 0.509338 0.251363
669 1 0.876699 0.495113 0.250049
415 1 0.936516 0.493797 0.190108
388 1 -0.000767889 0.56284 0.190899
642 1 0.058383 0.567423 0.253086
650 1 0.313167 0.562674 0.247545
400 1 0.37325 0.571262 0.185688
404 1 0.49961 0.559932 0.191842
658 1 0.559387 0.55799 0.253592
408 1 0.621874 0.558826 0.191713
662 1 0.686921 0.567195 0.250348
431 1 0.441596 0.624138 0.183419
689 1 0.500034 0.626469 0.255097
693 1 0.622403 0.618085 0.249667
439 1 0.686683 0.623889 0.188285
443 1 0.805966 0.62264 0.188174
701 1 0.869665 0.624483 0.247019
447 1 0.930115 0.629311 0.184551
674 1 0.0573112 0.686566 0.256502
424 1 0.116889 0.685967 0.193432
428 1 0.250316 0.694118 0.19027
682 1 0.309964 0.693632 0.248707
432 1 0.380489 0.689385 0.188513
690 1 0.563917 0.683501 0.25363
694 1 0.681769 0.682712 0.248296
444 1 0.748416 0.68633 0.18311
698 1 0.80691 0.684098 0.246581
448 1 0.871955 0.689336 0.18539
420 1 0.000177305 0.684759 0.18951
455 1 0.181147 0.749126 0.188011
463 1 0.437903 0.749501 0.185567
721 1 0.50162 0.749524 0.246987
725 1 0.624717 0.742598 0.253794
733 1 0.872087 0.747658 0.243562
452 1 0.997993 0.809474 0.181477
456 1 0.121297 0.813105 0.192058
460 1 0.248759 0.810163 0.193791
714 1 0.314031 0.812491 0.251303
718 1 0.443632 0.81843 0.245827
468 1 0.501257 0.811127 0.184851
726 1 0.694164 0.810446 0.254032
734 1 0.939136 0.812773 0.250014
483 1 0.0588023 0.874005 0.184011
487 1 0.183489 0.874606 0.189909
745 1 0.250557 0.877261 0.252336
749 1 0.375609 0.871585 0.245751
495 1 0.441229 0.872889 0.177845
503 1 0.689657 0.878811 0.192762
761 1 0.753139 0.870217 0.25135
511 1 0.934604 0.866095 0.188121
746 1 0.316485 0.937641 0.24632
750 1 0.434846 0.938618 0.251033
504 1 0.626688 0.935536 0.182199
762 1 0.808656 0.931144 0.249226
766 1 0.935751 0.934754 0.246116
484 1 0.998076 0.933197 0.190005
259 1 0.0577888 0.995067 0.193922
488 1 0.121552 0.93338 0.186637
263 1 0.182745 0.997327 0.190655
275 1 0.568546 0.994753 0.18774
754 1 0.570022 0.944084 0.252912
287 1 0.931401 0.00217329 0.188812
515 1 0.0555273 0.995147 0.308022
517 1 0.121195 1.00188 0.249655
523 1 0.316556 0.000319159 0.31025
525 1 0.371145 0.996062 0.246
537 1 0.748014 0.993418 0.251598
522 1 0.311562 0.0585495 0.251979
526 1 0.435566 0.0537591 0.241079
530 1 0.560306 0.059559 0.247159
534 1 0.68698 0.060335 0.255097
544 1 0.878661 0.0626893 0.314665
547 1 0.0688533 0.130208 0.312444
557 1 0.370395 0.123547 0.246386
561 1 0.48753 0.122571 0.254046
563 1 0.565615 0.121238 0.306184
571 1 0.810196 0.127398 0.310917
573 1 0.876058 0.127096 0.249798
546 1 0.06398 0.183061 0.24856
552 1 0.128029 0.191932 0.304617
554 1 0.311025 0.183249 0.249525
560 1 0.374112 0.18733 0.312432
558 1 0.431635 0.187819 0.252506
562 1 0.561535 0.177951 0.244417
566 1 0.689569 0.18876 0.240611
574 1 0.939937 0.191849 0.244442
548 1 1.00387 0.190658 0.30661
579 1 0.06865 0.247749 0.312176
583 1 0.194633 0.250588 0.307062
585 1 0.256997 0.243355 0.248035
593 1 0.506621 0.246339 0.245633
603 1 0.813074 0.251099 0.314734
605 1 0.871665 0.250977 0.248662
607 1 0.935126 0.252924 0.309539
577 1 0.0058716 0.253739 0.249885
584 1 0.122486 0.312569 0.317942
588 1 0.250397 0.313319 0.311918
592 1 0.374202 0.311767 0.313095
596 1 0.500858 0.311508 0.309952
598 1 0.69037 0.310177 0.245687
602 1 0.814693 0.308664 0.248354
608 1 0.872459 0.314501 0.313647
606 1 0.938442 0.313743 0.24996
611 1 0.0677491 0.371604 0.315708
615 1 0.186206 0.371116 0.317816
619 1 0.313696 0.373501 0.311182
623 1 0.442106 0.363919 0.315363
627 1 0.560672 0.372687 0.307811
629 1 0.625679 0.374606 0.250013
633 1 0.751479 0.368672 0.247938
635 1 0.813056 0.379084 0.313387
609 1 1.00365 0.376072 0.246191
612 1 0.994603 0.437184 0.313426
610 1 0.0618316 0.440608 0.249881
616 1 0.134784 0.441069 0.313739
614 1 0.18703 0.440189 0.249919
624 1 0.381004 0.436516 0.313363
628 1 0.504793 0.436241 0.306645
626 1 0.563651 0.438773 0.248881
632 1 0.627916 0.435671 0.311319
630 1 0.68774 0.430244 0.248731
636 1 0.747 0.439392 0.309562
643 1 0.0657833 0.503418 0.3153
645 1 0.12233 0.504606 0.250197
649 1 0.249971 0.499855 0.249321
651 1 0.310557 0.493167 0.313263
655 1 0.440713 0.502611 0.318292
657 1 0.502201 0.496771 0.254136
659 1 0.562717 0.500242 0.315416
661 1 0.625495 0.499867 0.251261
663 1 0.685844 0.497703 0.314655
671 1 0.933571 0.502697 0.311028
646 1 0.186832 0.564311 0.250055
652 1 0.247331 0.568782 0.313022
654 1 0.431772 0.567949 0.254325
660 1 0.499866 0.560596 0.314834
664 1 0.623658 0.560892 0.312094
668 1 0.751445 0.558917 0.320853
666 1 0.809392 0.561622 0.247237
672 1 0.86982 0.55529 0.323068
670 1 0.932525 0.563614 0.245283
644 1 0.993657 0.560595 0.313064
675 1 0.0584342 0.622057 0.315598
677 1 0.120232 0.625406 0.253453
681 1 0.251393 0.631759 0.248727
683 1 0.313485 0.624792 0.312162
685 1 0.371018 0.624238 0.25117
687 1 0.434121 0.623739 0.319186
695 1 0.692735 0.620554 0.317108
697 1 0.747743 0.62336 0.254638
703 1 0.925439 0.616039 0.313326
673 1 0.995183 0.625053 0.254116
678 1 0.189634 0.688691 0.252043
688 1 0.372137 0.68871 0.309631
686 1 0.435694 0.686075 0.252272
696 1 0.626945 0.680999 0.313221
702 1 0.933258 0.684696 0.248371
707 1 0.0623159 0.749486 0.318411
709 1 0.121261 0.75169 0.250396
713 1 0.244167 0.74986 0.256755
717 1 0.37337 0.749551 0.24959
723 1 0.559349 0.7487 0.309182
729 1 0.749649 0.743083 0.24789
705 1 0.9959 0.745666 0.251668
706 1 0.0609147 0.816203 0.254094
712 1 0.11881 0.815557 0.310292
710 1 0.18809 0.813338 0.251529
716 1 0.245976 0.814 0.311739
724 1 0.494828 0.808412 0.314681
722 1 0.560669 0.812925 0.247978
730 1 0.809214 0.80781 0.249456
736 1 0.875805 0.808071 0.309691
739 1 0.0555792 0.874479 0.317648
741 1 0.127254 0.876927 0.252609
747 1 0.313213 0.878622 0.311224
751 1 0.445837 0.877309 0.309829
753 1 0.504399 0.879527 0.247962
757 1 0.631168 0.872435 0.252132
765 1 0.869854 0.87112 0.250792
737 1 -0.00112928 0.871156 0.255222
738 1 0.0643028 0.931631 0.252158
742 1 0.180331 0.940359 0.248364
752 1 0.372302 0.937734 0.310983
760 1 0.627957 0.939446 0.313886
758 1 0.687295 0.936781 0.24894
764 1 0.750176 0.930655 0.312199
740 1 1.00001 0.935371 0.310279
527 1 0.439367 0.996155 0.312642
531 1 0.564389 0.00177244 0.318061
535 1 0.685879 0.997053 0.315337
543 1 0.933436 0.999805 0.316011
520 1 0.125141 0.0626448 0.303417
524 1 0.254479 0.0601712 0.318163
778 1 0.317393 0.0665279 0.376354
528 1 0.379481 0.0609764 0.307752
532 1 0.500784 0.0618269 0.310707
536 1 0.631136 0.0606783 0.319592
540 1 0.75665 0.0670685 0.313521
794 1 0.815689 0.0592845 0.3697
516 1 1.00043 0.0630638 0.316548
801 1 -9.9061e-06 0.125966 0.372311
805 1 0.12374 0.121988 0.376581
551 1 0.189477 0.119496 0.317546
555 1 0.314478 0.122051 0.311878
559 1 0.432931 0.126328 0.313504
567 1 0.689805 0.129595 0.312315
829 1 0.873892 0.12679 0.366476
575 1 0.937815 0.131589 0.310711
802 1 0.062785 0.186218 0.375341
556 1 0.253121 0.185464 0.30965
564 1 0.495523 0.190786 0.308374
568 1 0.626703 0.187585 0.306746
572 1 0.752222 0.19002 0.310741
576 1 0.87635 0.192586 0.313101
837 1 0.1256 0.246375 0.376866
841 1 0.254361 0.252036 0.376572
587 1 0.318136 0.253359 0.311874
591 1 0.441828 0.255497 0.310298
595 1 0.566022 0.243643 0.303361
853 1 0.627567 0.247795 0.372194
599 1 0.688207 0.248341 0.30398
861 1 0.873093 0.254192 0.371827
833 1 0.995372 0.249782 0.37116
834 1 0.0592481 0.308581 0.379859
838 1 0.188277 0.312194 0.377384
842 1 0.315934 0.312361 0.373968
850 1 0.562542 0.308195 0.373658
600 1 0.623179 0.307626 0.310623
854 1 0.685242 0.31336 0.383385
604 1 0.746132 0.311027 0.311251
580 1 0.00171281 0.313841 0.305041
869 1 0.123086 0.38094 0.382454
877 1 0.377113 0.372332 0.373803
885 1 0.626264 0.371603 0.371712
631 1 0.69115 0.377588 0.314908
889 1 0.745786 0.383465 0.380573
639 1 0.939715 0.373648 0.310295
866 1 0.0557579 0.440484 0.368201
870 1 0.191068 0.434156 0.374606
620 1 0.247268 0.43698 0.309773
874 1 0.304968 0.435999 0.372436
878 1 0.433382 0.438713 0.377201
882 1 0.563454 0.438866 0.370748
886 1 0.687615 0.444444 0.377985
890 1 0.810458 0.437506 0.37815
640 1 0.877559 0.439627 0.315465
647 1 0.193043 0.504162 0.311461
909 1 0.37248 0.496014 0.375769
917 1 0.627893 0.501028 0.381494
667 1 0.807609 0.495169 0.314908
897 1 0.996974 0.503722 0.380581
898 1 0.0627888 0.558563 0.376505
648 1 0.129021 0.565796 0.312346
906 1 0.308594 0.562919 0.374737
656 1 0.371459 0.559444 0.316452
910 1 0.438352 0.563601 0.379235
918 1 0.686793 0.56376 0.376037
929 1 0.000237637 0.622819 0.385075
933 1 0.117163 0.620763 0.377068
679 1 0.187842 0.62694 0.307641
937 1 0.249774 0.627183 0.376797
941 1 0.369225 0.623553 0.374765
945 1 0.499228 0.624578 0.378071
691 1 0.55983 0.623716 0.313177
699 1 0.813705 0.624172 0.320268
930 1 0.0591237 0.688195 0.3814
680 1 0.120713 0.683997 0.315029
934 1 0.180347 0.690323 0.374322
684 1 0.254527 0.682507 0.31489
692 1 0.500755 0.687118 0.3173
700 1 0.751729 0.683081 0.3162
704 1 0.870173 0.68621 0.303383
676 1 0.99433 0.686388 0.312181
965 1 0.119309 0.749882 0.382648
711 1 0.180693 0.750489 0.312774
715 1 0.310656 0.752851 0.310691
719 1 0.43828 0.744996 0.305788
727 1 0.68688 0.746182 0.312634
731 1 0.810716 0.74772 0.30656
735 1 0.928287 0.743961 0.3101
962 1 0.0623345 0.807899 0.378349
966 1 0.178547 0.811744 0.370569
720 1 0.385245 0.815174 0.307224
728 1 0.625335 0.810643 0.311138
732 1 0.752463 0.809297 0.311639
708 1 -0.0016331 0.804547 0.310322
743 1 0.187913 0.875685 0.308242
1009 1 0.502939 0.874822 0.381859
755 1 0.569124 0.874817 0.312887
759 1 0.686688 0.873478 0.319745
1017 1 0.747363 0.874006 0.379579
763 1 0.812912 0.876624 0.312037
767 1 0.937146 0.877468 0.307175
994 1 0.0678456 0.943466 0.371722
744 1 0.130516 0.937326 0.312532
1006 1 0.439983 0.933962 0.374084
756 1 0.503438 0.937099 0.308295
1014 1 0.690558 0.933252 0.375893
768 1 0.874832 0.937123 0.303963
519 1 0.189014 1.00012 0.313248
748 1 0.247627 0.937712 0.311777
1010 1 0.566073 0.937923 0.381378
793 1 0.748207 0.995325 0.376543
539 1 0.806805 0.992307 0.313785
777 1 0.247556 0.996401 0.370997
781 1 0.378448 0.998486 0.368179
785 1 0.501449 -0.000149965 0.37086
795 1 0.809084 0.99688 0.438272
797 1 0.86648 0.991776 0.370649
770 1 0.0643258 0.061866 0.382149
774 1 0.189881 0.0582221 0.379331
782 1 0.439885 0.0623198 0.371933
786 1 0.562745 0.0626672 0.370348
790 1 0.695954 0.0635437 0.375727
796 1 0.756459 0.0674906 0.441953
800 1 0.880848 0.0605427 0.434425
798 1 0.934534 0.0658657 0.370902
809 1 0.251863 0.125077 0.378306
813 1 0.379523 0.1245 0.381043
815 1 0.439213 0.11885 0.434989
817 1 0.502689 0.125151 0.372017
821 1 0.626108 0.127787 0.372321
823 1 0.6954 0.122845 0.439709
825 1 0.755539 0.124513 0.374789
827 1 0.818881 0.118132 0.430289
804 1 -0.000682301 0.187813 0.430736
806 1 0.193612 0.189284 0.37207
810 1 0.312364 0.184693 0.370069
814 1 0.434107 0.185918 0.37145
818 1 0.561218 0.192427 0.372483
822 1 0.692727 0.186625 0.378391
828 1 0.752677 0.186539 0.439989
826 1 0.812147 0.190043 0.376243
830 1 0.933549 0.192047 0.374075
835 1 0.0621406 0.248671 0.439055
845 1 0.375293 0.248825 0.374223
849 1 0.501587 0.252256 0.379071
855 1 0.690915 0.245477 0.437188
857 1 0.749049 0.252127 0.377242
859 1 0.813611 0.252699 0.435035
840 1 0.123175 0.314517 0.438203
848 1 0.38094 0.307703 0.433135
846 1 0.441947 0.312115 0.378317
852 1 0.498758 0.320812 0.438912
856 1 0.622562 0.310142 0.436802
860 1 0.750847 0.313499 0.436998
858 1 0.8118 0.316195 0.374807
864 1 0.875893 0.310703 0.438005
862 1 0.936488 0.310953 0.369932
867 1 0.0603189 0.376882 0.438642
871 1 0.184691 0.373168 0.439183
873 1 0.250701 0.374268 0.374031
881 1 0.501952 0.374228 0.371494
883 1 0.562076 0.37448 0.437697
887 1 0.687817 0.376794 0.439227
893 1 0.880034 0.371821 0.373393
865 1 -0.000387135 0.376509 0.375151
876 1 0.249942 0.443677 0.441884
888 1 0.621404 0.436238 0.441495
892 1 0.75159 0.436951 0.439707
894 1 0.9377 0.436779 0.384333
899 1 0.0637264 0.501952 0.437465
901 1 0.126329 0.494274 0.378789
903 1 0.185269 0.496563 0.438274
905 1 0.248571 0.500229 0.372041
907 1 0.304476 0.503438 0.431859
913 1 0.501792 0.497508 0.378412
919 1 0.686777 0.508142 0.439579
921 1 0.751555 0.497374 0.376481
925 1 0.876054 0.494673 0.388977
927 1 0.940602 0.499911 0.444095
904 1 0.128702 0.558176 0.439119
902 1 0.186588 0.559074 0.37678
908 1 0.249269 0.568027 0.434268
912 1 0.370337 0.562839 0.438718
914 1 0.560444 0.559402 0.376303
920 1 0.622602 0.564192 0.435681
922 1 0.809722 0.563484 0.379587
926 1 0.932186 0.557191 0.384211
931 1 0.062077 0.623401 0.440579
939 1 0.311649 0.628515 0.436327
943 1 0.433271 0.621876 0.441419
949 1 0.618905 0.619009 0.373791
953 1 0.751632 0.625373 0.374497
957 1 0.876618 0.62911 0.37554
936 1 0.126187 0.68285 0.440248
938 1 0.308842 0.690198 0.374238
944 1 0.377719 0.680768 0.441786
942 1 0.432687 0.690241 0.372665
946 1 0.558433 0.682662 0.379114
950 1 0.682257 0.680416 0.378313
956 1 0.752342 0.684081 0.445344
954 1 0.815833 0.687409 0.373418
960 1 0.873872 0.687556 0.441834
958 1 0.933283 0.688116 0.37343
932 1 0.99795 0.686609 0.441781
963 1 0.0540528 0.752875 0.442151
967 1 0.182828 0.761904 0.43591
969 1 0.240161 0.74966 0.370335
971 1 0.31038 0.751974 0.437295
973 1 0.37264 0.75001 0.369087
977 1 0.49829 0.748328 0.378209
981 1 0.622064 0.74034 0.372689
985 1 0.747433 0.745358 0.375053
989 1 0.873441 0.747414 0.371994
961 1 0.992693 0.749767 0.375078
964 1 0.00183905 0.817266 0.437545
970 1 0.318917 0.817333 0.364646
974 1 0.438072 0.811198 0.374256
978 1 0.56116 0.80886 0.374186
982 1 0.688708 0.810966 0.373429
986 1 0.812755 0.806635 0.376022
990 1 0.931213 0.807656 0.373165
997 1 0.124697 0.87842 0.372563
1001 1 0.248363 0.876509 0.369287
1005 1 0.377349 0.87927 0.36483
1011 1 0.56307 0.879156 0.4403
1013 1 0.62621 0.880873 0.380092
1021 1 0.878423 0.873455 0.377201
1023 1 0.935475 0.872061 0.442223
993 1 0.991431 0.8673 0.375728
998 1 0.189135 0.932715 0.375395
1002 1 0.309845 0.939568 0.37439
1016 1 0.625119 0.943268 0.440496
1020 1 0.74504 0.937341 0.441455
1018 1 0.810128 0.930182 0.375919
1022 1 0.936565 0.938343 0.374716
996 1 0.993829 0.92989 0.435956
769 1 1.00046 0.00190215 0.371283
773 1 0.126694 1.00051 0.368516
789 1 0.626784 0.00155614 0.380592
791 1 0.692327 0.0029664 0.441447
799 1 0.937195 0.994431 0.433834
771 1 0.057902 1.00035 0.441721
968 1 0.123095 0.819119 0.437466
779 1 0.316206 1.0017 0.432296
783 1 0.437859 0.00239568 0.428797
787 1 0.560606 0.00485605 0.434965
246 1 0.69031 0.933871 -0.00194799
222 1 0.936241 0.816842 -0.000966937
803 1 0.060872 0.126988 0.441309
776 1 0.120052 0.05464 0.443708
780 1 0.252518 0.0626751 0.440041
784 1 0.377813 0.0624606 0.438151
788 1 0.502449 0.0665537 0.429301
792 1 0.623257 0.067224 0.434669
205 1 0.381421 0.750795 0.00110233
1253 1 0.120692 0.87759 0.502196
772 1 0.996193 0.0562115 0.435642
991 1 0.930959 0.748371 0.436094
807 1 0.188562 0.121559 0.44224
811 1 0.314298 0.128648 0.436516
819 1 0.563023 0.127722 0.430477