ITEM: TIMESTEP
100000
ITEM: NUMBER OF ATOMS
2048
ITEM: BOX BOUNDS pp pp pp
0.0000000000000000e+00 1.3679807573413575e+01
0.0000000000000000e+00 1.3679807573413575e+01
0.0000000000000000e+00 1.3679807573413575e+01
ITEM: ATOMS id type xs ys zs
1415 1 0.0869517 0.0162114 0.00691168
36 1 0.657635 0.0299425 0.0306387
464 1 0.0669064 0.0851296 0.0434604
919 1 0.188203 0.0777329 0.0317047
871 1 0.277671 0.0639219 0.0378084
1619 1 0.473301 0.065876 0.0186158
1606 1 0.618962 0.0907117 0.0458394
2010 1 0.723831 0.0784271 0.0154806
46 1 0.13139 0.13328 0.0398795
710 1 0.445562 0.138871 0.0434414
478 1 0.551491 0.11514 0.0394443
1349 1 0.968472 0.130979 0.0171195
5 1 0.194724 0.170011 0.0299132
1756 1 0.26485 0.147916 0.0251548
174 1 0.338214 0.156953 0.0201255
1018 1 0.618218 0.189392 0.0150852
184 1 0.716541 0.163463 0.0242757
1335 1 0.120556 0.215242 0.0464813
1789 1 0.794112 0.204338 0.0270631
292 1 0.98106 0.206409 0.0462684
1647 1 0.0302669 0.272034 0.0143654
64 1 0.102136 0.273258 0.00860618
1092 1 0.187773 0.242847 0.0229913
150 1 0.382167 0.255096 0.0463667
1628 1 0.512968 0.246505 0.00624574
1522 1 0.702153 0.239793 0.0263223
759 1 0.865685 0.270344 0.0251213
474 1 0.358699 0.321718 0.0401716
518 1 0.56562 0.309908 0.0444359
672 1 0.74736 0.291787 0.0199213
826 1 0.811841 0.31143 0.000198074
881 1 0.969489 0.308353 0.044839
803 1 0.43222 0.367327 0.0223558
1609 1 0.767179 0.361142 0.0248326
1271 1 0.88525 0.343647 0.00116014
1511 1 0.251697 0.420306 0.0456434
1251 1 0.345046 0.42791 0.00278727
838 1 0.518173 0.41113 0.0360653
815 1 0.59564 0.388962 0.0112338
1362 1 0.681995 0.416935 0.0412384
814 1 0.851453 0.392885 0.0343906
53 1 0.183206 0.430323 0.0227068
280 1 0.414894 0.45703 0.0394411
1987 1 0.749874 0.429469 0.0189123
1165 1 0.843098 0.47089 0.0305041
1794 1 0.340933 0.515903 0.0346086
303 1 0.699047 0.477845 0.00830744
597 1 0.893947 0.513043 4.82487e-05
1508 1 0.98361 0.480817 0.00790788
1534 1 0.044926 0.524637 0.0141098
91 1 0.250268 0.542494 0.0342705
1912 1 0.405833 0.541684 0.0407017
832 1 0.516835 0.52635 0.0334104
1523 1 0.68572 0.548329 0.0330037
472 1 0.811562 0.546751 0.0138934
195 1 0.106676 0.611407 0.0367794
503 1 0.214588 0.603455 0.0439752
1919 1 0.59035 0.5972 0.0195177
288 1 0.426353 0.633306 0.0277164
993 1 0.516714 0.656588 0.0449427
579 1 0.117683 0.701426 0.0344285
443 1 0.205053 0.694185 0.0172471
958 1 0.282235 0.679448 0.0409973
427 1 0.391511 0.701712 0.0324018
1435 1 0.563963 0.711457 0.0459977
13 1 0.712778 0.68203 0.0448952
396 1 0.791278 0.687525 0.0432148
405 1 0.871302 0.700529 0.0222043
362 1 0.951116 0.705315 0.0246434
667 1 0.00282861 0.755985 0.0394894
1366 1 0.173658 0.759586 0.0449206
1354 1 0.761519 0.751693 0.000514154
1636 1 0.24968 0.762695 0.0146242
962 1 0.296958 0.804247 0.0492573
45 1 0.356383 0.765105 0.0479201
1553 1 0.610919 0.775896 0.0374355
855 1 0.693191 0.775696 0.0180773
653 1 0.121174 0.815461 0.039741
180 1 0.197955 0.822019 0.0291006
382 1 0.361185 0.829142 0.00374953
122 1 0.435488 0.820123 0.0186052
752 1 0.726464 0.840437 0.0426861
14 1 0.863491 0.850416 0.0322395
439 1 0.0870603 0.898172 0.0242934
969 1 0.460069 0.880212 0.039726
118 1 0.627948 0.857934 0.0308335
1562 1 0.695657 0.898001 0.0161258
1722 1 0.797693 0.884356 0.0373838
902 1 0.942253 0.889897 0.0356396
1945 1 0.178626 0.952027 0.0393831
576 1 0.420625 0.943179 0.0325901
535 1 0.0223366 0.977432 0.0143147
282 1 0.476253 0.970052 0.000676855
848 1 0.595849 0.997274 0.0176644
1475 1 0.859963 0.97946 0.0231293
945 1 0.145795 0.021465 0.0575175
1105 1 0.376205 0.00107833 0.0714835
975 1 0.547792 0.0469393 0.0742024
933 1 0.917785 0.0265669 0.0510397
1264 1 0.995964 0.0223568 0.0889011
1882 1 0.121432 0.0792212 0.0934871
266 1 0.315951 0.0913519 0.0996628
800 1 0.395208 0.069495 0.0538621
550 1 0.821405 0.0485269 0.052597
1139 1 0.874444 0.0905353 0.0840198
73 1 0.970907 0.0884929 0.0772916
1838 1 0.186822 0.10877 0.0986894
824 1 0.378583 0.141026 0.0804539
277 1 0.49514 0.111977 0.0948679
434 1 0.792938 0.12695 0.0503281
2036 1 0.648394 0.157239 0.0932231
1033 1 0.931831 0.145399 0.0881242
1697 1 0.229942 0.220878 0.0834935
1235 1 0.30841 0.220873 0.0696034
1432 1 0.485524 0.203764 0.0514135
1817 1 0.555365 0.192169 0.0774852
1310 1 0.642193 0.231418 0.0665748
1638 1 0.725287 0.201301 0.0801565
1700 1 0.80616 0.192217 0.0965031
330 1 0.885602 0.202064 0.0582315
137 1 0.0375304 0.245906 0.0804961
458 1 0.163909 0.265414 0.0849166
761 1 0.696747 0.278092 0.0888177
1425 1 0.0665943 0.32005 0.0508675
1121 1 0.239893 0.299299 0.0561306
461 1 0.302537 0.29672 0.077141
1131 1 0.410689 0.325868 0.0922666
308 1 0.479903 0.300416 0.0751094
1156 1 0.640588 0.317096 0.0633637
1708 1 0.925756 0.300936 0.0978399
428 1 0.167979 0.356982 0.0555525
876 1 0.294934 0.373434 0.084957
569 1 0.530924 0.358062 0.0848899
1637 1 0.691506 0.366582 0.0898428
918 1 0.767278 0.339203 0.0991689
1543 1 0.861591 0.334055 0.0641484
1850 1 0.0667792 0.404078 0.097017
111 1 0.374049 0.405707 0.0754949
1667 1 0.462458 0.392869 0.0872692
481 1 0.783827 0.403815 0.0827479
783 1 0.931276 0.390546 0.0988526
973 1 0.998719 0.401722 0.067554
102 1 0.0867753 0.462978 0.0519211
982 1 0.143504 0.431848 0.0843645
226 1 0.495479 0.469094 0.0813129
1992 1 0.569033 0.449398 0.0647997
1726 1 0.637774 0.474017 0.093715
2004 1 0.743223 0.462487 0.0927014
90 1 0.938787 0.465997 0.0761474
859 1 0.0143709 0.486921 0.0797136
1801 1 0.180019 0.513033 0.0601036
1740 1 0.258373 0.492477 0.092449
1804 1 0.807729 0.48285 0.0921506
105 1 0.0402509 0.552404 0.0890262
1997 1 0.101677 0.535466 0.0573281
742 1 0.760653 0.535403 0.0878322
393 1 0.964026 0.551142 0.065003
1278 1 0.284086 0.610685 0.0647683
99 1 0.351398 0.587292 0.0547617
138 1 0.548002 0.583633 0.08431
189 1 0.637293 0.574757 0.0778706
1198 1 0.707121 0.610445 0.0679659
410 1 0.889091 0.577234 0.0625881
1150 1 0.0111936 0.628898 0.0505135
1592 1 0.0604713 0.641672 0.0979475
1798 1 0.358582 0.665129 0.0856867
799 1 0.639028 0.661724 0.0521441
1933 1 0.806949 0.626323 0.0979816
1300 1 0.906503 0.665997 0.0748724
1765 1 0.176911 0.706692 0.0906423
2030 1 0.465942 0.702102 0.063851
249 1 0.0575246 0.721115 0.0810746
322 1 0.246659 0.731782 0.0822505
1535 1 0.661874 0.746361 0.0856918
984 1 0.734285 0.757601 0.0882101
224 1 0.079305 0.789285 0.0941279
835 1 0.472186 0.773714 0.0664016
168 1 0.547042 0.776597 0.0663478
1790 1 0.871959 0.797011 0.082707
1512 1 0.229878 0.835633 0.0962267
206 1 0.389138 0.819711 0.0893184
841 1 0.457893 0.834962 0.094881
922 1 0.606756 0.831617 0.0956099
688 1 0.678667 0.816001 0.0993515
634 1 0.80674 0.81198 0.0601896
1043 1 0.0178273 0.897401 0.0615512
1935 1 0.104029 0.857415 0.0959985
2008 1 0.329266 0.885573 0.0520633
1267 1 0.541643 0.859316 0.0592812
658 1 0.72123 0.884237 0.0913755
363 1 0.885187 0.894213 0.0929037
596 1 0.172473 0.905427 0.0908458
1857 1 0.244802 0.943107 0.0821175
202 1 0.575221 0.92277 0.0567725
1936 1 0.659734 0.929891 0.0762808
1340 1 0.794669 0.936143 0.0950396
381 1 0.109035 0.952569 0.0687713
1249 1 0.304302 0.978683 0.0527132
917 1 0.479162 0.983672 0.0823016
2035 1 0.720344 0.973115 0.0663944
1800 1 0.860872 0.982039 0.0936901
1202 1 0.967963 0.967545 0.0581898
1760 1 0.0755789 0.0211476 0.133179
526 1 0.194066 0.0346869 0.10818
694 1 0.285762 0.0182978 0.130519
323 1 0.446291 0.0351706 0.11808
1614 1 0.607306 0.0836218 0.111101
479 1 0.697499 0.0918164 0.112667
1848 1 0.780965 0.0828656 0.105392
1989 1 0.892733 0.0521693 0.149607
1713 1 0.429239 0.110273 0.129394
41 1 0.547306 0.119159 0.148151
1152 1 0.0544771 0.149235 0.109478
1641 1 0.139555 0.175504 0.108101
63 1 0.280518 0.160414 0.124653
442 1 0.380311 0.176855 0.148511
1375 1 0.441252 0.181031 0.103554
1694 1 0.0521253 0.21192 0.145431
2045 1 0.588096 0.206648 0.143997
825 1 0.115669 0.244221 0.143922
1418 1 0.270593 0.268835 0.133898
648 1 0.365969 0.261297 0.117546
798 1 0.522696 0.241662 0.119568
1247 1 0.599993 0.278562 0.121833
864 1 0.74847 0.257398 0.130215
2012 1 0.859919 0.268554 0.115349
1219 1 0.968432 0.239305 0.119571
453 1 0.0532751 0.286247 0.146096
598 1 0.176658 0.323429 0.128787
740 1 0.309542 0.327626 0.142048
1755 1 0.551543 0.322415 0.149258
573 1 0.995497 0.310311 0.112377
1008 1 0.0981118 0.346847 0.137715
1556 1 0.877981 0.345933 0.139245
197 1 0.213453 0.388035 0.136531
957 1 0.286273 0.40597 0.146457
1141 1 0.414279 0.411015 0.138818
1239 1 0.614066 0.413626 0.121249
1027 1 0.813095 0.410858 0.1474
633 1 0.0557507 0.461537 0.139039
1101 1 0.336214 0.458613 0.124036
1461 1 0.883816 0.438617 0.1375
2007 1 0.978054 0.459384 0.142478
1309 1 0.126472 0.49999 0.121981
786 1 0.408273 0.476782 0.118337
338 1 0.552352 0.51556 0.104653
158 1 0.905812 0.515537 0.113606
593 1 0.182904 0.541789 0.13537
707 1 0.247232 0.568941 0.110007
536 1 0.487643 0.545002 0.106775
678 1 0.634329 0.545078 0.14393
2038 1 0.837056 0.561087 0.107675
1102 1 0.100416 0.575023 0.116769
600 1 0.302777 0.609173 0.132585
1055 1 0.394121 0.600498 0.107481
1400 1 0.67355 0.613891 0.134144
11 1 0.748741 0.595538 0.148118
1944 1 0.913619 0.597535 0.129373
938 1 0.990309 0.616323 0.120167
1601 1 0.153797 0.634931 0.129748
1423 1 0.471527 0.635918 0.113886
1161 1 0.589236 0.631506 0.131595
714 1 0.747813 0.657642 0.120911
1994 1 0.235043 0.688047 0.139337
66 1 0.447127 0.702029 0.133059
1533 1 0.521985 0.680351 0.136937
1241 1 0.677195 0.683908 0.110516
1684 1 0.972198 0.685124 0.147135
732 1 0.387647 0.745616 0.11807
1610 1 0.602339 0.716851 0.11022
387 1 0.811747 0.742248 0.100616
480 1 0.881826 0.737092 0.146483
421 1 0.970614 0.758923 0.125368
1875 1 0.327899 0.78193 0.124472
1823 1 0.516738 0.804866 0.123984
559 1 0.025023 0.847646 0.115313
1746 1 0.752207 0.818746 0.11546
1088 1 0.947215 0.824246 0.10386
483 1 0.296266 0.857858 0.110926
246 1 0.354474 0.890207 0.149109
947 1 0.453581 0.896593 0.133709
1236 1 0.672722 0.894168 0.142616
7 1 0.815004 0.862206 0.105402
853 1 0.0256414 0.939745 0.115417
1312 1 0.31112 0.938915 0.117966
1814 1 0.396068 0.934068 0.108601
1715 1 0.591263 0.905009 0.125205
108 1 0.95476 0.919882 0.116868
1254 1 0.149661 0.960924 0.128678
1759 1 0.575969 0.983416 0.118841
903 1 0.662247 0.992052 0.127192
978 1 0.765371 0.9981 0.115415
1245 1 0.0214415 0.0139457 0.180108
1611 1 0.146427 0.0279047 0.173176
987 1 0.214699 0.024892 0.190364
1252 1 0.361704 0.00768617 0.153568
297 1 0.53919 0.0312986 0.162796
1602 1 0.71953 0.00164189 0.177008
560 1 0.254247 0.0932487 0.161859
395 1 0.465377 0.068336 0.198615
1923 1 0.783946 0.0496592 0.17333
1889 1 0.961456 0.0502746 0.153038
1048 1 0.013951 0.0994164 0.166083
1476 1 0.0867995 0.0966633 0.193228
1927 1 0.181134 0.127698 0.168372
423 1 0.343137 0.10125 0.171569
120 1 0.479792 0.142797 0.168633
702 1 0.615118 0.140624 0.158538
37 1 0.782902 0.138009 0.16817
1899 1 0.842089 0.100655 0.166823
1513 1 0.910381 0.118336 0.158672
1081 1 0.0288538 0.160807 0.199932
2039 1 0.116112 0.164472 0.175022
1642 1 0.227651 0.182604 0.18899
273 1 0.294849 0.160206 0.199251
1615 1 0.72529 0.18099 0.168327
185 1 0.856585 0.176584 0.154362
1589 1 0.970748 0.167973 0.15723
1986 1 0.332255 0.230457 0.169654
628 1 0.659997 0.213513 0.15137
32 1 0.920084 0.211751 0.187978
1449 1 0.200502 0.261642 0.15098
2028 1 0.394166 0.267931 0.184847
233 1 0.552763 0.259627 0.18803
281 1 0.642227 0.281052 0.179069
1201 1 0.831599 0.25839 0.180324
253 1 0.974922 0.260841 0.189709
1747 1 0.261937 0.308552 0.193448
1786 1 0.456663 0.308506 0.162362
578 1 0.811471 0.323722 0.162322
1403 1 0.907908 0.285803 0.179266
244 1 0.195747 0.338151 0.199075
601 1 0.381547 0.33406 0.161131
1444 1 0.499543 0.372346 0.157233
862 1 0.635707 0.362335 0.167328
1561 1 0.703667 0.344748 0.161893
1185 1 0.920455 0.361965 0.199838
1865 1 0.00236053 0.389173 0.152549
1090 1 0.0586742 0.393591 0.192873
983 1 0.346379 0.392992 0.196329
1050 1 0.570687 0.399782 0.181768
777 1 0.731565 0.414671 0.162266
1972 1 0.138051 0.443826 0.16156
1505 1 0.345773 0.473212 0.191182
1766 1 0.559246 0.461478 0.153316
1230 1 0.662559 0.451362 0.17608
1564 1 0.275023 0.501466 0.183037
1420 1 0.46239 0.492215 0.174211
1080 1 0.724859 0.491116 0.15495
1581 1 0.84566 0.505685 0.159982
817 1 0.911944 0.511677 0.19634
214 1 0.34894 0.546254 0.161456
371 1 0.544866 0.542625 0.169069
455 1 0.990599 0.529026 0.152044
1537 1 0.0567459 0.581554 0.184723
894 1 0.24721 0.584951 0.181676
404 1 0.498779 0.607512 0.17843
1357 1 0.811564 0.59801 0.185462
77 1 0.294394 0.651592 0.188387
1466 1 0.377828 0.648963 0.164853
669 1 0.0443245 0.690955 0.16963
1132 1 0.128256 0.690727 0.174179
1157 1 0.637287 0.676464 0.169066
491 1 0.712311 0.694853 0.171394
236 1 0.812899 0.680187 0.152946
546 1 0.149339 0.756748 0.160121
408 1 0.234478 0.757025 0.155035
1929 1 0.503273 0.752153 0.173314
1378 1 0.622183 0.743138 0.18613
865 1 0.96406 0.742799 0.195184
1448 1 0.0471404 0.794741 0.160144
946 1 0.332272 0.769245 0.190491
899 1 0.452492 0.804719 0.168108
1825 1 0.726456 0.764591 0.184761
1070 1 0.817543 0.801291 0.165393
1327 1 0.912083 0.796122 0.163844
1381 1 0.185413 0.822667 0.164408
1397 1 0.380631 0.822686 0.164467
8 1 0.564435 0.841059 0.163152
1831 1 0.72846 0.854699 0.176003
1555 1 0.978064 0.827721 0.175825
1792 1 0.0730301 0.878854 0.156624
845 1 0.169204 0.892687 0.159132
1812 1 0.242127 0.85755 0.17836
60 1 0.615487 0.898316 0.199086
615 1 0.902127 0.86973 0.185436
1962 1 0.278114 0.916862 0.188226
490 1 0.540113 0.907534 0.17742
1281 1 0.750605 0.930404 0.171851
1005 1 0.815847 0.906446 0.194467
687 1 0.875342 0.938276 0.156152
1689 1 0.965741 0.906855 0.192187
1292 1 0.227319 0.955299 0.152742
797 1 0.47146 0.968059 0.155702
1644 1 0.605292 0.976849 0.191449
169 1 0.82141 0.985074 0.165645
1807 1 0.931548 0.981021 0.185355
1178 1 0.0840218 0.0249317 0.215873
561 1 0.280018 0.0265604 0.214506
1738 1 0.457179 0.000155896 0.217486
867 1 0.546106 0.0206005 0.240843
1089 1 0.66411 0.00163465 0.246808
1183 1 0.783632 0.0124017 0.243564
2011 1 0.859684 0.0251915 0.212399
167 1 0.973746 0.0475413 0.227875
69 1 0.165906 0.0941629 0.23645
1274 1 0.388988 0.0538937 0.220817
1629 1 0.707701 0.0609611 0.245472
291 1 0.773561 0.0878191 0.234761
963 1 0.246351 0.0963091 0.234103
1852 1 0.336745 0.0970993 0.247981
1846 1 0.418659 0.126591 0.209481
1881 1 0.519026 0.11399 0.224688
1540 1 0.603024 0.120888 0.225805
1856 1 0.900013 0.131764 0.234196
1840 1 0.968248 0.122494 0.221385
1017 1 0.36214 0.172204 0.230454
1037 1 0.659164 0.181145 0.221095
1021 1 0.0908595 0.192306 0.234609
375 1 0.149359 0.226945 0.214583
188 1 0.293081 0.215053 0.244235
10 1 0.527477 0.191107 0.231074
1164 1 0.596139 0.224147 0.233769
470 1 0.763069 0.229665 0.206217
1563 1 0.871597 0.229878 0.235557
861 1 0.480323 0.246727 0.205868
145 1 0.708671 0.275939 0.210938
683 1 0.0852832 0.314118 0.204222
2003 1 0.145349 0.296478 0.235591
590 1 0.397444 0.329105 0.236405
274 1 0.509297 0.319022 0.232339
654 1 0.588942 0.319992 0.233091
436 1 0.864904 0.311153 0.232352
1843 1 0.941849 0.302282 0.235264
1431 1 0.271505 0.365995 0.231445
681 1 0.789425 0.343451 0.239875
315 1 0.999969 0.365078 0.248471
1222 1 0.136508 0.403553 0.221522
1483 1 0.233608 0.427209 0.201545
844 1 0.467857 0.383483 0.241231
625 1 0.627526 0.410208 0.227063
1711 1 0.847231 0.383051 0.205242
662 1 0.0941818 0.46496 0.239806
1308 1 0.417137 0.429772 0.214642
407 1 0.523498 0.441574 0.234161
1257 1 0.741297 0.469849 0.221353
1319 1 0.829187 0.446833 0.226216
1770 1 0.921181 0.43493 0.228941
746 1 0.993464 0.466742 0.220881
1262 1 0.0561575 0.521197 0.245468
1026 1 0.159671 0.476577 0.22623
1911 1 0.400976 0.516146 0.21542
1280 1 0.604274 0.493889 0.210075
716 1 0.678326 0.515769 0.213195
1158 1 0.115777 0.54885 0.206192
1569 1 0.181729 0.55494 0.233856
1937 1 0.303055 0.547347 0.2426
1976 1 0.758547 0.545384 0.209338
1877 1 0.849306 0.550873 0.227941
620 1 0.973135 0.561614 0.230491
1980 1 0.129939 0.615817 0.226677
208 1 0.365673 0.593476 0.211275
1559 1 0.579088 0.588282 0.223496
713 1 0.722358 0.615633 0.213587
332 1 0.905008 0.595008 0.208387
1338 1 0.0669306 0.645629 0.217844
414 1 0.256999 0.623035 0.246671
1265 1 0.518644 0.644027 0.248216
471 1 0.651488 0.624761 0.21395
1902 1 0.858741 0.650779 0.201215
964 1 0.974786 0.64544 0.223485
1053 1 0.0315502 0.705544 0.244742
1943 1 0.116044 0.698802 0.248413
2043 1 0.197504 0.672475 0.205711
1175 1 0.467111 0.703327 0.242078
924 1 0.539887 0.700751 0.212524
212 1 0.0823188 0.745402 0.201452
1908 1 0.180788 0.751745 0.24296
351 1 0.257726 0.727828 0.227787
113 1 0.424175 0.754904 0.216702
1520 1 0.812102 0.727371 0.238788
1502 1 0.872246 0.759667 0.215722
592 1 0.285119 0.806643 0.224653
734 1 0.549365 0.786208 0.211993
1138 1 0.951103 0.793558 0.244692
1633 1 0.139109 0.818608 0.218097
765 1 0.209823 0.824329 0.240331
575 1 0.61529 0.845181 0.242585
1719 1 0.782719 0.816581 0.228993
655 1 0.996326 0.848617 0.246691
986 1 0.0622384 0.85854 0.22745
1625 1 0.243541 0.88387 0.24498
921 1 0.397548 0.879909 0.23824
1191 1 0.482078 0.87866 0.20417
1350 1 0.681556 0.904709 0.23126
89 1 0.0560769 0.927807 0.219476
1277 1 0.387853 0.939126 0.200298
1575 1 0.495855 0.931877 0.246654
1220 1 0.737453 0.948569 0.241151
605 1 0.875657 0.929262 0.236166
1735 1 0.16818 0.967541 0.214898
1940 1 0.338391 0.991176 0.236074
287 1 0.171316 0.0316331 0.269384
1873 1 0.29084 0.0433019 0.280193
724 1 0.603447 0.0279756 0.293919
638 1 0.8458 0.0363129 0.275527
500 1 0.0384561 0.0767043 0.258251
1440 1 0.111866 0.0695565 0.271612
372 1 0.442912 0.0914402 0.269602
2037 1 0.926897 0.0663489 0.280508
1830 1 0.673753 0.120239 0.263465
16 1 0.838331 0.10905 0.284495
583 1 0.981748 0.112766 0.293865
309 1 0.0478996 0.182665 0.290972
608 1 0.157865 0.183492 0.274486
1828 1 0.229244 0.182252 0.260627
476 1 0.443093 0.182721 0.261807
441 1 0.775983 0.159926 0.298845
1595 1 0.944558 0.184525 0.262542
368 1 0.505344 0.199075 0.299943
819 1 0.737647 0.223997 0.275839
950 1 0.806985 0.218656 0.259864
1355 1 0.0372392 0.266446 0.257625
886 1 0.200012 0.251674 0.265039
744 1 0.275029 0.268617 0.284272
515 1 0.399581 0.250455 0.25781
1401 1 0.636138 0.276627 0.272006
697 1 0.796187 0.283136 0.294468
213 1 0.92435 0.253953 0.28561
1306 1 0.328437 0.302273 0.25461
1046 1 0.469051 0.31997 0.289248
1 1 0.0719114 0.359951 0.256334
1287 1 0.686869 0.335968 0.258436
1905 1 0.888988 0.37599 0.282793
548 1 0.126277 0.38986 0.290525
720 1 0.200765 0.407452 0.28675
1827 1 0.372932 0.415789 0.278066
792 1 0.480375 0.427717 0.291341
1752 1 0.540841 0.382304 0.273836
1803 1 0.728782 0.407759 0.264929
566 1 0.0342365 0.449196 0.274211
1326 1 0.309998 0.43415 0.257021
531 1 0.685676 0.465731 0.27218
1093 1 0.12089 0.506573 0.297227
1557 1 0.250666 0.482771 0.253315
1956 1 0.373653 0.487468 0.271095
429 1 0.447151 0.492872 0.268336
1904 1 0.566965 0.508369 0.284852
1353 1 0.778316 0.487534 0.290566
949 1 0.941623 0.499611 0.266354
1583 1 0.425911 0.565976 0.255129
1971 1 0.501777 0.540882 0.273875
643 1 0.732277 0.537427 0.271711
1203 1 0.822083 0.551999 0.299939
86 1 0.0418692 0.600361 0.270538
843 1 0.103479 0.576835 0.293507
144 1 0.170854 0.596855 0.295553
1975 1 0.586407 0.574186 0.298332
194 1 0.677668 0.586409 0.267068
1031 1 0.739966 0.616757 0.279673
104 1 0.908626 0.583669 0.288292
940 1 0.426307 0.63695 0.25382
1662 1 0.630498 0.633206 0.298702
1891 1 0.831804 0.627744 0.273197
1654 1 0.201439 0.680807 0.276417
451 1 0.289683 0.681438 0.266906
1360 1 0.35689 0.673438 0.271891
240 1 0.513704 0.706533 0.299585
34 1 0.598766 0.71198 0.294473
1515 1 0.701329 0.693567 0.269821
1676 1 0.918795 0.681961 0.25732
376 1 0.354526 0.748698 0.259999
1172 1 0.736492 0.750714 0.250178
1214 1 0.902451 0.758774 0.297717
1377 1 0.0648307 0.787342 0.258452
1709 1 0.129802 0.79241 0.288256
527 1 0.47692 0.791988 0.251876
1841 1 0.563931 0.789289 0.286598
92 1 0.624171 0.768589 0.257312
116 1 0.803142 0.792162 0.294502
347 1 0.345933 0.827569 0.259557
416 1 0.544367 0.846071 0.252476
335 1 0.6852 0.819762 0.257402
318 1 0.860479 0.835124 0.262663
1813 1 0.126805 0.89025 0.25074
394 1 0.659091 0.885345 0.293398
1013 1 0.736677 0.876556 0.274855
1324 1 0.933026 0.883198 0.271194
449 1 0.282854 0.943878 0.291683
2014 1 0.604831 0.951257 0.269759
810 1 0.994775 0.920393 0.287127
741 1 0.0395226 0.973573 0.269935
649 1 0.117344 0.980048 0.26004
780 1 0.179109 0.966081 0.297721
1639 1 0.235266 0.995629 0.255034
1177 1 0.4278 0.961944 0.284144
49 1 0.520483 0.975883 0.298712
1565 1 0.877476 0.973126 0.294148
808 1 0.940912 0.955634 0.258022
147 1 0.373364 0.00543603 0.303662
680 1 0.499329 0.0456961 0.312461
1743 1 0.170727 0.0948181 0.307836
1687 1 0.231976 0.0715947 0.333169
295 1 0.346002 0.0857069 0.328009
1190 1 0.435675 0.0899248 0.339394
1041 1 0.571222 0.0923461 0.301367
879 1 0.660796 0.0639889 0.311664
504 1 0.761428 0.0705527 0.319768
2025 1 0.968336 0.0535794 0.34873
990 1 0.0557503 0.100444 0.328051
934 1 0.281311 0.131483 0.30778
1970 1 0.497175 0.118007 0.302959
712 1 0.108816 0.14651 0.315355
1253 1 0.337635 0.174196 0.316262
110 1 0.398939 0.146708 0.34944
1087 1 0.541838 0.150483 0.342288
1793 1 0.616801 0.149017 0.312458
1866 1 0.940418 0.168737 0.33768
1419 1 0.218222 0.206565 0.330358
306 1 0.442954 0.225271 0.324344
870 1 0.590033 0.209361 0.343561
586 1 0.675544 0.194305 0.304718
329 1 0.738117 0.23218 0.347187
1389 1 0.860596 0.227713 0.342119
1783 1 0.0716114 0.28064 0.318551
20 1 0.144861 0.244348 0.313821
1291 1 0.34672 0.248707 0.300415
1698 1 0.552019 0.263042 0.314049
640 1 0.30789 0.309288 0.33832
1797 1 0.385902 0.300773 0.320531
68 1 0.646774 0.290366 0.348958
1261 1 0.717697 0.302701 0.31587
1727 1 0.893 0.312303 0.320554
324 1 0.0268483 0.370422 0.326842
1751 1 0.0960931 0.356602 0.349226
1016 1 0.16381 0.339159 0.326538
691 1 0.246965 0.346414 0.313548
115 1 0.418638 0.365006 0.322847
1749 1 0.591179 0.351319 0.345535
757 1 0.819551 0.355073 0.306718
663 1 0.95481 0.340606 0.307328
384 1 0.27381 0.418852 0.322476
1894 1 0.672137 0.382805 0.313319
1579 1 0.792725 0.419054 0.327292
525 1 0.944146 0.428001 0.302135
820 1 0.00526033 0.436598 0.344196
1210 1 0.0839709 0.448693 0.322278
354 1 0.163424 0.439486 0.334113
379 1 0.35025 0.457574 0.334566
1176 1 0.419927 0.444683 0.330471
907 1 0.548946 0.445323 0.32058
1392 1 0.616106 0.441237 0.31974
1605 1 0.873645 0.449755 0.306242
1526 1 0.0102989 0.522561 0.307791
186 1 0.27446 0.49205 0.321608
709 1 0.664305 0.50518 0.329106
564 1 0.192001 0.524695 0.325954
929 1 0.344558 0.535708 0.313396
1064 1 0.427403 0.550767 0.331394
1197 1 0.701842 0.561417 0.341889
932 1 0.910309 0.529171 0.333946
699 1 0.286004 0.58172 0.323493
125 1 0.978833 0.594742 0.316259
1179 1 0.192388 0.658162 0.34621
988 1 0.405721 0.63029 0.328674
1754 1 0.475625 0.652443 0.32097
1858 1 0.550091 0.631699 0.315722
260 1 0.766374 0.620036 0.348153
320 1 0.917124 0.645699 0.328793
836 1 0.00437134 0.681911 0.3224
991 1 0.0894401 0.673136 0.31083
701 1 0.279996 0.678941 0.345322
1855 1 0.43281 0.709548 0.321732
1333 1 0.65756 0.689581 0.335576
1001 1 0.857972 0.704045 0.308053
1457 1 0.0517479 0.732366 0.314338
1057 1 0.142695 0.717111 0.34679
635 1 0.222046 0.724422 0.326912
181 1 0.372071 0.753913 0.333015
1145 1 0.741647 0.721211 0.32043
955 1 0.204894 0.798526 0.303086
1294 1 0.296156 0.769494 0.30972
909 1 0.498733 0.781177 0.321225
698 1 0.636718 0.768538 0.336368
261 1 0.721577 0.800967 0.315596
1122 1 0.980695 0.786768 0.325078
1618 1 0.0552603 0.848971 0.30225
51 1 0.345294 0.823956 0.340804
1272 1 0.412096 0.857027 0.345994
1815 1 0.579238 0.837043 0.341392
1630 1 0.815109 0.854299 0.340078
1643 1 0.905542 0.83059 0.330077
1453 1 0.136763 0.858327 0.315477
1391 1 0.23159 0.898298 0.314136
1352 1 0.338649 0.898685 0.312167
509 1 0.524159 0.889609 0.303235
2031 1 0.0818336 0.930433 0.312931
438 1 0.605923 0.912164 0.327162
1454 1 0.776129 0.921935 0.327074
231 1 0.950904 0.943456 0.342355
1772 1 0.0381874 0.975375 0.349831
123 1 0.242291 0.998988 0.330219
1404 1 0.715583 0.996803 0.305683
619 1 0.795848 0.997453 0.310792
1159 1 0.308913 0.000348002 0.363856
856 1 0.512817 0.0206003 0.383981
106 1 0.733409 0.0260082 0.393472
327 1 0.857456 0.00898995 0.369613
851 1 0.0538833 0.0590265 0.390183
1546 1 0.134138 0.0612332 0.365413
953 1 0.201607 0.0762196 0.3985
1135 1 0.53991 0.0897006 0.37984
1931 1 0.639987 0.0586355 0.38762
728 1 0.773255 0.0892287 0.392644
1531 1 0.857117 0.0755032 0.350321
488 1 0.00341205 0.11706 0.374078
97 1 0.106216 0.119637 0.394305
1240 1 0.255503 0.118325 0.377912
939 1 0.681809 0.130158 0.354041
165 1 0.917549 0.104928 0.37707
1655 1 0.0808174 0.188867 0.36496
412 1 0.177108 0.156025 0.368257
1826 1 0.273027 0.189966 0.39414
1348 1 0.622198 0.167225 0.397559
413 1 0.748574 0.164514 0.37006
642 1 0.822665 0.164096 0.350501
530 1 0.379528 0.212719 0.37188
685 1 0.493112 0.212768 0.386914
1305 1 0.68112 0.20404 0.374504
365 1 0.902841 0.199797 0.3957
1854 1 0.0366418 0.253315 0.380772
711 1 0.13046 0.25028 0.398844
1127 1 0.278658 0.249079 0.353433
447 1 0.330684 0.271695 0.397104
1957 1 0.497153 0.284939 0.365438
1928 1 0.582288 0.278879 0.397985
1344 1 0.867404 0.280467 0.390978
905 1 0.948545 0.252781 0.360934
1104 1 0.218396 0.292179 0.374565
562 1 0.419863 0.303521 0.387837
1682 1 0.735853 0.321567 0.399535
1568 1 0.992247 0.310107 0.361792
121 1 0.149321 0.367126 0.392748
316 1 0.348203 0.368596 0.352751
1095 1 0.494832 0.373407 0.366616
589 1 0.805239 0.348628 0.377577
307 1 0.897962 0.375948 0.355813
1120 1 0.969483 0.37909 0.36851
1112 1 0.220156 0.40683 0.374779
352 1 0.399667 0.399044 0.3859
237 1 0.7455 0.385649 0.369581
418 1 0.841149 0.414759 0.378199
1256 1 0.102676 0.431708 0.398026
1499 1 0.289707 0.439834 0.389264
816 1 0.481541 0.455748 0.358228
726 1 0.587693 0.459065 0.383111
130 1 0.65579 0.463562 0.394365
1296 1 0.0215272 0.50215 0.37295
1067 1 0.154583 0.500226 0.380922
1275 1 0.227319 0.478889 0.387485
1926 1 0.306196 0.50978 0.383351
737 1 0.544721 0.511119 0.352278
4 1 0.749666 0.482061 0.357722
1898 1 0.818297 0.490614 0.350166
1666 1 0.942059 0.480717 0.380927
6 1 0.0850976 0.53262 0.356942
558 1 0.145023 0.569405 0.360773
1248 1 0.253342 0.558916 0.383737
574 1 0.597953 0.545463 0.394906
155 1 0.846463 0.565663 0.385564
979 1 0.0463778 0.593858 0.35148
1495 1 0.316473 0.615427 0.379265
1958 1 0.378773 0.576544 0.371102
129 1 0.457419 0.586571 0.38457
1824 1 0.534158 0.582911 0.379027
1969 1 0.975845 0.573611 0.395454
1946 1 0.0285036 0.648904 0.395071
1758 1 0.133147 0.648859 0.390745
1209 1 0.458507 0.666424 0.394785
343 1 0.538231 0.664379 0.381067
833 1 0.676867 0.627861 0.35555
1885 1 0.726325 0.666365 0.38573
703 1 0.840479 0.642619 0.362906
1702 1 0.392747 0.67879 0.374348
1844 1 0.917746 0.702867 0.374156
1387 1 0.321002 0.754423 0.383504
1867 1 0.498371 0.727028 0.387018
790 1 0.563822 0.731897 0.356263
156 1 0.780706 0.721618 0.395583
44 1 0.0580382 0.804007 0.360284
611 1 0.173232 0.785931 0.382219
555 1 0.247514 0.771361 0.3747
809 1 0.526501 0.7985 0.393323
235 1 0.76569 0.807789 0.394167
1467 1 0.8289 0.775568 0.359928
462 1 0.906578 0.779972 0.390133
2021 1 0.995946 0.768225 0.395839
71 1 0.497666 0.847141 0.352418
1664 1 0.662006 0.852971 0.355277
1118 1 0.527795 0.900423 0.397133
1776 1 0.72788 0.869055 0.367614
450 1 0.940925 0.8774 0.37268
928 1 0.0142729 0.905056 0.364546
284 1 0.0972492 0.952331 0.387059
1607 1 0.147219 0.90635 0.372545
875 1 0.281605 0.920148 0.363107
133 1 0.41709 0.920006 0.395787
1024 1 0.474834 0.938845 0.357962
242 1 0.608259 0.922861 0.398156
1480 1 0.702653 0.93674 0.350224
484 1 0.856024 0.907695 0.375169
1216 1 0.367353 0.95541 0.352876
774 1 0.430873 0.99655 0.357976
1785 1 0.56453 0.973391 0.364446
1774 1 0.641681 0.984356 0.377862
35 1 0.977907 0.991694 0.392666
140 1 0.136045 0.00432045 0.415423
1232 1 0.240818 0.015659 0.402138
204 1 0.334117 0.0331787 0.434947
1721 1 0.585273 0.0168816 0.421503
1315 1 0.916455 0.0439502 0.412141
1542 1 0.393488 0.0532927 0.401299
524 1 0.472088 0.0492453 0.436986
296 1 0.818947 0.0508441 0.432046
232 1 0.35255 0.112874 0.415047
502 1 0.463095 0.120161 0.415498
754 1 0.583089 0.109084 0.446804
813 1 0.703568 0.109521 0.415664
1465 1 0.861086 0.137883 0.425345
708 1 0.139461 0.185081 0.418793
1371 1 0.526472 0.157231 0.437536
1231 1 0.980904 0.181751 0.408193
2041 1 0.0548578 0.207536 0.433179
522 1 0.206534 0.221524 0.404157
911 1 0.588531 0.206916 0.442626
1490 1 0.799408 0.207384 0.406886
1328 1 0.417121 0.243278 0.430097
1762 1 0.509378 0.24733 0.448571
1845 1 0.710002 0.2658 0.445772
1085 1 0.98838 0.255779 0.430196
914 1 0.0544847 0.313468 0.435098
1541 1 0.172005 0.292627 0.432776
1481 1 0.354039 0.330867 0.440333
1669 1 0.521417 0.331405 0.422876
1410 1 0.839776 0.329807 0.437252
1489 1 0.284881 0.349026 0.412586
1199 1 0.637506 0.36974 0.402216
1670 1 0.764464 0.377914 0.442343
1622 1 0.967913 0.33405 0.429168
1816 1 0.339374 0.399491 0.437566
399 1 0.553895 0.398682 0.401712
54 1 0.886237 0.394779 0.428264
830 1 0.99066 0.415276 0.438921
75 1 0.382938 0.46305 0.40428
1723 1 0.506924 0.472194 0.423785
1286 1 0.816864 0.469224 0.416442
1736 1 0.061457 0.50754 0.436862
1728 1 0.438327 0.503073 0.402973
1732 1 0.596322 0.492824 0.44801
1922 1 0.857192 0.519714 0.445656
1288 1 0.996034 0.49519 0.443853
221 1 0.157297 0.540578 0.438647
721 1 0.358809 0.535241 0.42412
1408 1 0.500828 0.550506 0.435687
989 1 0.677015 0.557416 0.409473
895 1 0.759264 0.559551 0.414985
1376 1 0.921529 0.553867 0.445212
1181 1 0.0398599 0.582583 0.428844
1474 1 0.113758 0.598269 0.443098
872 1 0.182823 0.631398 0.437521
1171 1 0.374224 0.628154 0.423488
1939 1 0.499755 0.620405 0.442005
1316 1 0.608403 0.625784 0.405583
621 1 0.789583 0.640565 0.420085
690 1 0.896224 0.623004 0.416247
743 1 0.242127 0.672943 0.416362
1412 1 0.313711 0.674233 0.421469
665 1 0.848751 0.698588 0.406574
392 1 0.953845 0.708388 0.447652
837 1 0.0688167 0.729794 0.400283
1004 1 0.145237 0.716508 0.431106
1811 1 0.605952 0.753416 0.433839
1650 1 0.68845 0.755869 0.416795
1771 1 0.259978 0.807673 0.436597
1692 1 0.404669 0.769242 0.415154