ITEM: TIMESTEP
0
ITEM: NUMBER OF ATOMS
360
ITEM: BOX BOUNDS pp pp pp
0.0000000000000000e+00 6.6943295008216896e+00
0.0000000000000000e+00 6.6943295008216896e+00
0.0000000000000000e+00 6.6943295008216896e+00
ITEM: ATOMS id type xs ys zs
246 1 0.202753 0.247204 0.0826803
83 1 0.0657309 0.170299 0.0820997
334 2 0.149225 0.0720361 0.116946
170 1 0.0175208 0.0372708 0.134932
8 1 0.155778 0.157867 0.214396
69 1 0.0956778 0.0147198 0.00111244
74 1 0.399002 0.0417335 0.0680459
348 2 0.361389 0.21592 0.230005
78 1 0.287774 0.149655 0.142194
80 1 0.445426 0.210703 0.116242
314 2 0.362147 0.0740032 0.209164
156 1 0.257227 0.000457515 0.178514
250 1 0.264529 0.0584949 0.0245891
204 1 0.683551 0.0782067 0.0414538
353 2 0.715216 0.00294058 0.150414
144 1 0.584981 0.178907 0.0222836
316 2 0.694918 0.204156 0.0514176
25 1 0.539889 0.00676482 0.10184
117 1 0.737577 0.138358 0.154592
20 1 0.585768 0.124837 0.171891
162 1 0.618994 0.00121675 0.249863
11 1 0.922147 0.140529 0.137286
354 2 0.815352 0.0917392 0.0453847
150 1 0.93183 0.0481185 0.022018
92 1 0.836334 0.0208637 0.162456
281 1 0.118126 0.498537 0.0113714
15 1 0.181326 0.399609 0.116836
269 1 0.0647291 0.291624 0.160925
267 1 0.0137179 0.450989 0.134041
212 1 0.292118 0.310157 0.17264
272 1 0.332016 0.48797 0.133728
79 1 0.49293 0.359978 0.122344
167 1 0.340914 0.355728 0.036782
106 1 0.640631 0.430814 0.150683
66 1 0.641614 0.276309 0.140634
3 1 0.716198 0.357032 0.0301787
34 1 0.60975 0.480138 0.0188731
283 1 0.956627 0.278529 0.0598762
130 1 0.873386 0.433153 0.0557161
113 1 0.873593 0.396829 0.212229
308 2 0.770202 0.38894 0.14522
88 1 0.817289 0.255403 0.13746
307 2 0.929719 0.256999 0.193464
292 2 0.792947 0.301068 0.246178
318 2 0.751069 0.468083 0.0200155
121 1 0.0377796 0.126378 0.43551
331 2 0.139592 0.175199 0.360656
21 1 0.118544 0.0438682 0.326588
122 1 0.176893 0.0568344 0.495009
111 1 0.00787704 0.197797 0.276928
116 1 0.197934 0.215395 0.474031
322 2 0.244325 0.0604813 0.303248
10 1 0.464899 0.145097 0.2587
248 1 0.326714 0.0316929 0.474185
129 1 0.472552 0.0698292 0.414103
140 1 0.273386 0.190935 0.319788
328 2 0.374553 0.119436 0.370464
30 1 0.4048 0.240357 0.344726
193 1 0.338994 0.177966 0.467955
5 1 0.479038 0.213852 0.4599
60 1 0.643798 0.0048443 0.434909
142 1 0.698674 0.222532 0.269946
22 1 0.591681 0.138272 0.341335
112 1 0.712115 0.136865 0.419825
100 1 0.95551 0.0650243 0.292116
274 1 0.750315 0.0609099 0.290312
59 1 0.848162 0.167043 0.261573
155 1 0.885887 0.141718 0.417036
118 1 0.0784102 0.410363 0.268824
264 1 0.0763114 0.43865 0.464584
340 2 0.185697 0.363583 0.495901
108 1 0.0653682 0.277957 0.400256
326 2 0.161875 0.396869 0.374099
259 1 0.181714 0.303935 0.286336
210 1 0.225292 0.447631 0.266462
302 2 0.408556 0.467925 0.478404
141 1 0.280991 0.322118 0.402221
233 1 0.306485 0.470898 0.393526
337 2 0.382451 0.310903 0.472816
58 1 0.376755 0.411256 0.259764
243 1 0.718688 0.403422 0.480041
149 1 0.603408 0.490704 0.391957
236 1 0.530037 0.476971 0.255886
255 1 0.524855 0.303345 0.266649
104 1 0.502532 0.374186 0.411471
36 1 0.619169 0.270643 0.400981
31 1 0.654998 0.376372 0.298813
138 1 0.806466 0.414619 0.358217
103 1 0.923966 0.320114 0.315683
339 2 0.954492 0.278294 0.471692
350 2 0.977167 0.408869 0.39729
214 1 0.768609 0.285145 0.37999
51 1 0.958472 0.475772 0.296784
260 1 0.859968 0.3781 0.486857
177 1 0.166342 0.0893997 0.647331
252 1 0.0874033 0.173214 0.564163
176 1 0.000404783 0.0592319 0.682945
191 1 0.0489507 0.00923081 0.558148
216 1 0.292227 0.17011 0.611436
163 1 0.39304 0.1012 0.727272
174 1 0.401561 0.242982 0.666445
205 1 0.4353 0.0950925 0.574807
44 1 0.309838 0.00812905 0.623703
14 1 0.547372 0.0111818 0.566917
189 1 0.665149 0.183344 0.642565
190 1 0.650493 0.0206065 0.682423
128 1 0.733209 0.0734847 0.557129
135 1 0.598306 0.151258 0.514375
351 2 0.535975 0.0826011 0.669972
192 1 0.538228 0.189207 0.738694
257 1 0.932348 0.22546 0.589398
179 1 0.789464 0.222698 0.555628
42 1 0.836854 0.0854029 0.684279
247 1 0.91638 0.068578 0.553095
359 2 0.140766 0.259725 0.64053
208 1 0.0528669 0.327786 0.542459
96 1 0.0283146 0.299703 0.702634
68 1 0.174362 0.381205 0.619141
223 1 0.245288 0.474138 0.531129
320 2 0.0259641 0.455796 0.630301
50 1 0.284125 0.310806 0.56255
245 1 0.298167 0.44891 0.678531
47 1 0.433641 0.386651 0.584637
349 2 0.42182 0.462514 0.705547
54 1 0.53367 0.250938 0.599142
270 1 0.673083 0.326763 0.654588
114 1 0.511818 0.362987 0.700126
56 1 0.573545 0.388489 0.547801
29 1 0.741654 0.450062 0.626204
299 2 0.683832 0.290838 0.539332
89 1 0.614315 0.456287 0.734672
215 1 0.52735 0.493689 0.627629
180 1 0.796469 0.25677 0.702083
125 1 0.924029 0.389133 0.66625
298 2 0.831087 0.325446 0.603222
296 2 0.910704 0.296625 0.738708
312 2 0.971577 0.435278 0.523041
1 1 0.10438 0.165485 0.753165
352 2 0.1395 0.0418275 0.793209
102 1 0.16782 0.169962 0.962687
107 1 0.0226677 0.0098441 0.860182
346 2 0.139107 0.24196 0.859409
277 1 0.301435 0.21856 0.778444
32 1 0.258585 0.0948558 0.846951
229 1 0.396985 0.0745638 0.928612
333 2 0.472837 0.234395 0.991503
97 1 0.331553 0.209727 0.999505
273 1 0.518915 0.194144 0.880955
184 1 0.568285 0.072864 0.825077
154 1 0.741796 0.151483 0.794464
294 2 0.505339 0.0818715 0.982511
321 2 0.668378 0.0939518 0.926393
18 1 0.701911 0.220364 0.92189
49 1 0.960318 0.173864 0.763647
99 1 0.997327 0.158458 0.927169
338 2 0.923744 0.0488009 0.780607
271 1 0.851393 0.0936521 0.888236
70 1 0.862603 0.237575 0.849338
67 1 0.82776 0.223508 0.996275
203 1 0.169705 0.325403 0.769519
311 2 0.0370502 0.435588 0.799282
178 1 0.247126 0.293028 0.914265
293 2 0.230777 0.408151 0.840738
131 1 0.118037 0.421234 0.889792
148 1 0.0225141 0.291534 0.853078
219 1 0.167289 0.483661 0.751055
145 1 0.0888276 0.308508 0.979942
347 2 0.244876 0.408714 0.972921
290 2 0.469023 0.287361 0.793682
160 1 0.401224 0.294605 0.919486
206 1 0.396651 0.386489 0.801129
202 1 0.463786 0.444755 0.97203
197 1 0.689401 0.497511 0.89607
123 1 0.533222 0.373456 0.863308
357 2 0.672714 0.37582 0.905998
288 1 0.640191 0.276964 0.786584
207 1 0.743438 0.404306 0.778018
16 1 0.57292 0.336654 0.990503
28 1 0.986718 0.462917 0.95207
23 1 0.810828 0.363816 0.928017
319 2 0.953356 0.34269 0.9273
158 1 0.924459 0.409776 0.820761
291 2 0.757774 0.290201 0.827904
251 1 0.14348 0.678022 0.096675
304 2 0.0388792 0.707122 0.192458
105 1 0.155953 0.540249 0.183888
341 2 0.243997 0.553316 0.074429
280 1 0.269888 0.648154 0.156202
235 1 0.489328 0.51431 0.112506
240 1 0.363083 0.749947 0.081944
134 1 0.467732 0.662198 0.149389
327 2 0.388759 0.59466 0.103211
143 1 0.568197 0.628265 0.248761
94 1 0.602248 0.610347 0.0778961
198 1 0.704662 0.649087 0.193762
171 1 0.528619 0.732209 0.0247022
287 1 0.914442 0.578991 0.00992559
295 2 0.847623 0.633195 0.1357
127 1 0.990199 0.596677 0.159566
225 1 0.905099 0.72622 0.224294
65 1 0.765907 0.596641 0.0115321
82 1 0.776765 0.522536 0.144187
120 1 0.216825 0.79056 0.149817
315 2 0.0685201 0.847174 0.160195
13 1 0.00355712 0.755304 0.0864313
213 1 0.16057 0.920303 0.0838281
332 2 0.205706 0.760302 0.00516988
4 1 0.153666 0.917624 0.23501
139 1 0.458355 0.859042 0.124978
62 1 0.30905 0.891593 0.0665282
222 1 0.323754 0.880501 0.232754
258 1 0.479923 0.979663 0.230647
6 1 0.694639 0.750231 0.0310783
164 1 0.591318 0.750589 0.178932
317 2 0.575326 0.904447 0.189159
37 1 0.741493 0.901145 0.23223
284 1 0.631025 0.875614 0.0736916
75 1 0.740497 0.778568 0.166781
265 1 0.847007 0.753346 0.069626
95 1 0.9948 0.907674 0.0799504
84 1 0.76847 0.907941 0.0930954
161 1 0.897381 0.879616 0.164739
323 2 0.871473 0.911172 0.0299348
324 2 0.0883806 0.533027 0.292086
256 1 0.173793 0.556124 0.41092
98 1 0.156314 0.684414 0.257378
234 1 0.0278884 0.639676 0.31014
76 1 0.125191 0.719451 0.407284
185 1 0.0321128 0.596574 0.463817
218 1 0.344158 0.734372 0.253797
194 1 0.385611 0.571228 0.257693
72 1 0.462742 0.519406 0.37168
238 1 0.274251 0.62268 0.328988
220 1 0.429283 0.669346 0.363007
230 1 0.360342 0.596686 0.464585
169 1 0.262228 0.708366 0.498872
263 1 0.504784 0.56959 0.495863
109 1 0.72002 0.57114 0.40301
342 2 0.746603 0.726914 0.451983
182 1 0.611761 0.71213 0.369409
93 1 0.688547 0.506195 0.266983
301 2 0.603608 0.60285 0.442353
261 1 0.976841 0.746573 0.442109
286 1 0.764297 0.713709 0.313042
12 1 0.856884 0.65457 0.409858
26 1 0.853116 0.579021 0.258532
187 1 0.901834 0.508716 0.423557
231 1 0.0438345 0.791175 0.27377
343 2 0.186487 0.805233 0.277018
181 1 0.00635231 0.934937 0.25149
124 1 0.0633117 0.900143 0.402364
262 1 0.227529 0.941142 0.393897
24 1 0.352129 0.998848 0.30705
241 1 0.465287 0.807 0.261521
48 1 0.452738 0.929958 0.49775
17 1 0.257421 0.780065 0.381512
87 1 0.411779 0.832677 0.395441
244 1 0.749362 0.84556 0.418229
45 1 0.625497 0.851489 0.298867
313 2 0.503051 0.764563 0.370214
356 2 0.720151 0.960433 0.355936
63 1 0.573214 0.8434 0.454096
345 2 0.542377 0.945695 0.358902
166 1 0.911385 0.820829 0.332754
266 1 0.871394 0.946938 0.295647
64 1 0.803295 0.993118 0.462849
254 1 0.950233 0.999149 0.419931
285 1 0.162495 0.735064 0.628801
77 1 0.107264 0.54416 0.597597
306 2 0.105684 0.626037 0.694737
201 1 0.235627 0.594675 0.634184
132 1 0.0150146 0.686885 0.587407
90 1 9.10924e-05 0.554077 0.724881
336 2 0.181755 0.619105 0.526402
38 1 0.388038 0.522198 0.589862
289 2 0.368537 0.605751 0.716545
305 2 0.34112 0.642594 0.597824
153 1 0.45961 0.669927 0.650731
147 1 0.325369 0.724339 0.685942
119 1 0.465028 0.728178 0.508479
126 1 0.64029 0.531715 0.531197
344 2 0.58563 0.628216 0.631699
237 1 0.738017 0.608975 0.660549
85 1 0.638156 0.730288 0.699955
275 1 0.595392 0.698957 0.537362
268 1 0.938069 0.539798 0.583216
355 2 0.768477 0.720543 0.709652
221 1 0.839182 0.678749 0.561487
242 1 0.857027 0.517571 0.726395
199 1 0.886232 0.66168 0.709141
35 1 0.804167 0.540789 0.519398
71 1 0.168939 0.822245 0.50244
196 1 0.0295892 0.801179 0.67304
228 1 0.199359 0.876437 0.645069
310 2 0.0581584 0.848549 0.539445
52 1 0.080683 0.941076 0.726598
335 2 0.182267 0.94028 0.534287
159 1 0.399646 0.820784 0.610408
309 2 0.2757 0.804068 0.584583
46 1 0.294545 0.899625 0.516382
91 1 0.454279 0.951953 0.673156
200 1 0.721692 0.766598 0.566145
232 1 0.564498 0.836384 0.627694
136 1 0.6796 0.910953 0.552955
152 1 0.73274 0.857774 0.719049
217 1 0.950443 0.920901 0.621283
33 1 0.877365 0.93672 0.749048
27 1 0.85976 0.807681 0.646983
297 2 0.888184 0.946252 0.512628
19 1 0.810562 0.959069 0.61588
81 1 0.868779 0.826617 0.500547
7 1 0.0347474 0.665661 0.974797
2 1 0.0603596 0.568581 0.859932
41 1 0.170943 0.698556 0.89715
43 1 0.206549 0.657889 0.763599
282 1 0.0463452 0.704204 0.791862
9 1 0.20643 0.530215 0.89539
276 1 0.315207 0.523176 0.801595
133 1 0.327139 0.514844 0.97284
300 2 0.281843 0.625645 0.881058
224 1 0.472746 0.563353 0.757325
186 1 0.378516 0.660471 0.829096
303 2 0.427802 0.523683 0.879005
249 1 0.446575 0.597868 0.980327
278 1 0.28228 0.658111 0.999541
360 2 0.712408 0.522528 0.768399
57 1 0.555204 0.533819 0.884333
115 1 0.613458 0.606298 0.756828
279 1 0.535053 0.682855 0.861905
55 1 0.671096 0.643346 0.904033
330 2 0.9446 0.708493 0.883368
110 1 0.827936 0.513396 0.908371
227 1 0.774157 0.612852 0.805817
209 1 0.834857 0.692188 0.91888
40 1 0.920598 0.603363 0.83983
253 1 0.0224228 0.856308 0.833665
151 1 0.156582 0.816966 0.765582
73 1 0.0914009 0.835513 0.985569
86 1 0.178471 0.90911 0.878992
157 1 0.446281 0.9834 0.809472
172 1 0.250721 0.968593 0.753455
168 1 0.473156 0.779326 0.751688
188 1 0.419778 0.763076 0.942761
165 1 0.360867 0.8678 0.761265
101 1 0.322734 0.932939 0.891165
173 1 0.278964 0.800803 0.878658
325 2 0.452555 0.850264 0.859076
53 1 0.462393 0.914695 0.976956
137 1 0.574053 0.89848 0.776239
211 1 0.730492 0.99501 0.813629
195 1 0.594487 0.986551 0.943887
358 2 0.659645 0.898088 0.860385
183 1 0.571655 0.823745 0.911277
226 1 0.703201 0.770005 0.842988
146 1 0.787512 0.837027 0.956505
239 1 0.891008 0.935718 0.899544
39 1 0.875178 0.785749 0.804153
61 1 0.950682 0.800613 0.952612
329 2 0.795566 0.893472 0.831615
175 1 0.760331 0.979073 0.963159
ITEM: TIMESTEP
10000
ITEM: NUMBER OF ATOMS
360
ITEM: BOX BOUNDS pp pp pp
0.0000000000000000e+00 6.6943295008216896e+00
0.0000000000000000e+00 6.6943295008216896e+00
0.0000000000000000e+00 6.6943295008216896e+00
ITEM: ATOMS id type xs ys zs
170 1 0.141607 0.183896 0.180317
8 1 0.130126 0.0972317 0.0546992
340 2 0.224272 0.186066 0.450102
213 1 0.141496 0.029519 0.198806
78 1 0.286368 0.0701132 0.211085
314 2 0.38715 0.253451 0.0226124
10 1 0.443347 0.0800961 0.209981
74 1 0.489446 0.161708 0.0888707
250 1 0.344011 0.095906 0.056305
25 1 0.478347 0.00282014 0.0816388
326 2 0.224276 0.127611 0.122271
144 1 0.628718 0.255387 0.112647
274 1 0.775007 0.0652592 0.228291
353 2 0.675668 0.108332 0.131679
204 1 0.759418 0.0747089 0.0339755
22 1 0.540796 0.197317 0.239231
18 1 0.609332 0.0422186 0.0296003
73 1 0.987819 0.0371517 9.16802e-05
142 1 0.778326 0.185056 0.141205
11 1 0.99851 0.184791 0.116069
117 1 0.912502 0.0586949 0.160538
95 1 0.901727 0.155287 0.00930054
269 1 0.0988183 0.26068 0.0457949
267 1 0.114378 0.462106 0.0901665
283 1 0.0365193 0.338552 0.156902
272 1 0.272813 0.473337 0.128512
113 1 0.955567 0.465976 0.105496
259 1 0.137082 0.329406 0.272307
141 1 0.211364 0.312559 0.133923
333 2 0.484285 0.439308 0.0872671
246 1 0.343265 0.348475 0.0785401
58 1 0.322994 0.347927 0.238632
301 2 0.434574 0.293241 0.192067
20 1 0.416008 0.457329 0.196489
3 1 0.725779 0.363997 0.175147
80 1 0.495082 0.30177 0.0638753
59 1 0.852783 0.289825 0.237447
66 1 0.684847 0.221832 0.260253
16 1 0.600548 0.416415 0.0446286
220 1 0.551038 0.381481 0.190242
318 2 0.874091 0.401236 0.168177
88 1 0.892341 0.286069 0.09085
193 1 0.346992 0.193764 0.467416
130 1 0.810806 0.443938 0.284125
100 1 0.0310013 0.0992541 0.257077
322 2 0.174862 0.037697 0.310135
109 1 0.687861 0.496422 0.429875
108 1 0.249228 0.219612 0.282282
111 1 0.106175 0.184511 0.366461
122 1 0.266912 0.0987749 0.370143
292 2 0.823271 0.31511 0.483103
212 1 0.348606 0.211929 0.152184
30 1 0.399075 0.203281 0.330576
348 2 0.367044 0.0651069 0.309238
177 1 0.41317 0.0587935 0.454103
60 1 0.696641 0.0467977 0.369799
162 1 0.618047 0.0340195 0.220414
299 2 0.663706 0.18286 0.368158
36 1 0.738271 0.198932 0.484653
121 1 0.982929 0.116063 0.489295
14 1 0.542066 0.0659836 0.344676
50 1 0.172977 0.308125 0.428128
155 1 0.801609 0.162832 0.354356
214 1 0.920399 0.233039 0.418204
254 1 0.915761 0.0752733 0.346834
307 2 0.899118 0.165038 0.251208
256 1 0.243689 0.47253 0.455788
210 1 0.223207 0.457301 0.294669
67 1 0.753134 0.253293 0.0155037
51 1 0.00711127 0.24064 0.282175
331 2 0.0309244 0.31286 0.38083
116 1 0.0804119 0.430111 0.386572
82 1 0.961193 0.406629 0.288128
72 1 0.366862 0.493507 0.338766
5 1 0.476903 0.285887 0.441659
233 1 0.322908 0.331086 0.38133
104 1 0.45937 0.361843 0.317502
223 1 0.41045 0.424913 0.488287
149 1 0.550882 0.448567 0.39577
255 1 0.59418 0.307116 0.348954
79 1 0.660935 0.440199 0.290016
103 1 0.917966 0.387888 0.424955
31 1 0.740262 0.318878 0.385697
328 2 0.478417 0.163501 0.414382
112 1 0.594274 0.15782 0.473409
21 1 0.0828831 0.0243246 0.399908
118 1 0.0758775 0.490954 0.227495
335 2 0.296539 0.0820948 0.488719
350 2 0.00253218 0.473424 0.489629
64 1 0.81982 0.078375 0.475504
23 1 0.743728 0.404054 0.022719
32 1 0.2569 0.220111 0.0199586
57 1 0.394101 0.488563 0.00895626
277 1 0.235701 0.113054 0.788701
96 1 0.0431633 0.0816944 0.638632
191 1 0.158629 0.0854798 0.519476
352 2 0.218745 0.131763 0.663174
216 1 0.0733278 0.224927 0.565003
203 1 0.151673 0.223185 0.732789
138 1 0.756544 0.417428 0.533722
163 1 0.228269 0.241727 0.578908
205 1 0.327254 0.124159 0.600138
54 1 0.464955 0.188325 0.556252
1 1 0.184938 0.00356946 0.642829
321 2 0.428304 0.0618231 0.640757
129 1 0.522285 0.047409 0.548826
135 1 0.601785 0.0219147 0.681799
128 1 0.66732 0.0407804 0.539235
247 1 0.765611 0.132374 0.629431
154 1 0.497239 0.137103 0.731915
206 1 0.179783 0.484375 0.805483
257 1 0.878882 0.202023 0.56797
252 1 0.893227 0.0458398 0.631755
332 2 0.0276871 0.0218553 0.876048
359 2 0.143174 0.324239 0.629799
68 1 0.00975201 0.303315 0.674517
264 1 0.0758091 0.381956 0.530497
293 2 0.116868 0.395509 0.725051
245 1 0.190029 0.440682 0.61543
219 1 0.019488 0.448763 0.656173
174 1 0.261614 0.327547 0.703321
47 1 0.373277 0.290702 0.604962
349 2 0.40408 0.374231 0.720178
337 2 0.279946 0.375286 0.54368
287 1 0.885448 0.401466 0.961444
290 2 0.272557 0.449899 0.729008
38 1 0.342257 0.476039 0.622126
179 1 0.613645 0.185172 0.643154
351 2 0.505105 0.266258 0.667519
270 1 0.502568 0.398026 0.640087
29 1 0.642328 0.445712 0.624637
207 1 0.757644 0.237194 0.759699
320 2 0.906616 0.427768 0.717794
339 2 0.976731 0.288047 0.520355
296 2 0.8652 0.261256 0.674462
180 1 0.755155 0.292125 0.609764
125 1 0.908459 0.393231 0.572513
242 1 0.750935 0.398895 0.727146
239 1 0.853983 0.00452759 0.899842
273 1 0.623785 0.187516 0.9713
107 1 0.0689923 0.0933181 0.784256
99 1 0.976323 0.267037 0.94898
83 1 0.154384 0.180689 0.902958
197 1 0.7262 0.311884 0.876431
192 1 0.347258 0.191928 0.719192
229 1 0.30108 0.253554 0.870041
157 1 0.245177 0.0592691 0.947855
97 1 0.383927 0.0995083 0.83417
160 1 0.470661 0.200187 0.931663
158 1 0.878146 0.325033 0.795196
312 2 0.822597 0.42847 0.854609
319 2 0.842451 0.287429 0.924032
195 1 0.561397 0.0947022 0.872794
115 1 0.655756 0.450848 0.850274
70 1 0.701458 0.0518308 0.894063
334 2 0.337324 0.168983 0.938691
288 1 0.666227 0.120568 0.77234
52 1 0.954534 0.00320421 0.762796
224 1 0.46979 0.428799 0.809979
49 1 0.828926 0.0801079 0.767457
148 1 0.944069 0.168999 0.70875
69 1 0.941135 0.136464 0.869472
150 1 0.787328 0.167771 0.892409
145 1 0.0420055 0.400577 0.974652
102 1 0.0245692 0.256807 0.821216
346 2 0.0946418 0.29844 0.92462
178 1 0.178458 0.338383 0.843438
131 1 0.0351589 0.408053 0.809856
294 2 0.5905 0.221903 0.814996
354 2 0.0532759 0.165236 0.985889
243 1 0.631595 0.322379 0.500479
202 1 0.427579 0.353085 0.945456
347 2 0.310881 0.362498 0.949925
114 1 0.447051 0.282345 0.806589
167 1 0.324846 0.426871 0.837589
298 2 0.572153 0.439819 0.519493
123 1 0.567975 0.345547 0.894523
89 1 0.596132 0.320473 0.737812
360 2 0.564415 0.454737 0.737772
44 1 0.337405 0.0181479 0.700639
358 2 0.45473 0.03988 0.960363
297 2 0.970593 0.0018213 0.542557
9 1 0.254721 0.500416 0.953656
15 1 0.191051 0.36819 0.998742
127 1 0.194355 0.574629 0.197889
194 1 0.293954 0.612007 0.0669152
281 1 0.142439 0.596784 0.0330051
286 1 0.0452714 0.640342 0.246254
295 2 0.0757368 0.57531 0.13925
230 1 0.360106 0.583789 0.50476
134 1 0.504145 0.740384 0.223334
238 1 0.363174 0.720201 0.138027
235 1 0.339361 0.587995 0.225989
249 1 0.544169 0.719829 0.054178
94 1 0.615639 0.642496 0.199645
6 1 0.748578 0.674339 0.13327
61 1 0.926914 0.804506 0.0161215
34 1 0.464789 0.595861 0.130936
65 1 0.838522 0.589525 0.207778
327 2 0.783078 0.704811 0.27902
7 1 0.951979 0.614298 0.106041
308 2 0.854587 0.695701 0.0388593
304 2 0.044593 0.726865 0.137813
13 1 0.145939 0.824462 0.0615784
105 1 0.192749 0.711408 0.147544
315 2 0.136062 0.887629 0.170033
324 2 0.0139366 0.610834 0.483047
4 1 0.128768 0.919532 0.296673
120 1 0.235352 0.840252 0.221376
218 1 0.312358 0.851032 0.0584242
139 1 0.459866 0.836767 0.0935181
222 1 0.352511 0.932848 0.17614
156 1 0.217391 0.970191 0.0843604
164 1 0.634096 0.791259 0.155367
284 1 0.709047 0.951717 0.138639
24 1 0.542926 0.891116 0.219432
341 2 0.387141 0.767183 0.00918549
171 1 0.593236 0.886619 0.0432814
140 1 0.451774 0.958213 0.305625
181 1 0.0294438 0.913341 0.0977338
37 1 0.779114 0.82504 0.235326
92 1 0.865858 0.950109 0.0582872
265 1 0.887467 0.742752 0.167484
323 2 0.873188 0.889753 0.177192
146 1 0.782925 0.810058 0.0712765
234 1 0.159375 0.717584 0.304695
26 1 0.129038 0.577719 0.375775
106 1 0.708695 0.522491 0.165574
12 1 0.0390852 0.695238 0.399916
227 1 0.643217 0.59784 0.0520439
169 1 0.349212 0.73383 0.438424
98 1 0.270579 0.61563 0.350274
313 2 0.272802 0.721674 0.246804
263 1 0.421316 0.643643 0.343876
302 2 0.476102 0.560618 0.428394
317 2 0.663789 0.749738 0.0428758
231 1 0.981906 0.938059 0.244433
93 1 0.719725 0.584618 0.301579
266 1 0.833963 0.948634 0.303665
35 1 0.836648 0.526621 0.411901
182 1 0.597557 0.619475 0.39122
143 1 0.649099 0.767525 0.306896
241 1 0.512083 0.779137 0.384904
342 2 0.94027 0.527331 0.230091
356 2 0.926526 0.779711 0.410706
221 1 0.751109 0.655478 0.465952
225 1 0.884591 0.658948 0.33376
75 1 0.916105 0.807377 0.292287
198 1 0.986179 0.551976 0.364952
343 2 0.163558 0.743983 0.430913
161 1 0.0534871 0.805039 0.230392
124 1 0.0857647 0.851624 0.433669
17 1 0.241275 0.82292 0.365175
71 1 0.212282 0.961153 0.450065
316 2 0.586528 0.510105 0.154764
55 1 0.827734 0.545854 0.0602007
262 1 0.29434 0.952258 0.313895
248 1 0.389825 0.875294 0.424435
87 1 0.379045 0.779851 0.298307
244 1 0.799197 0.773966 0.385862
63 1 0.732367 0.897523 0.432767
275 1 0.63674 0.762559 0.468197
258 1 0.666272 0.913039 0.301186
45 1 0.567196 0.926186 0.44963
166 1 0.950571 0.915745 0.401241
236 1 0.525249 0.549099 0.259873
41 1 0.0227735 0.704311 0.00304241
185 1 0.209092 0.640317 0.492535
132 1 0.905247 0.674115 0.498553
285 1 0.212326 0.709722 0.630819
306 2 0.235908 0.66148 0.767477
201 1 0.184122 0.575802 0.681208
261 1 0.0173324 0.627879 0.621634
81 1 0.0877033 0.749332 0.552178
345 2 0.463858 0.935349 0.520918
336 2 0.239748 0.541218 0.57425
289 2 0.369173 0.605276 0.634716
147 1 0.344493 0.716061 0.575935
159 1 0.497738 0.644328 0.673048
344 2 0.523771 0.762855 0.681916
56 1 0.487575 0.529036 0.554962
355 2 0.708484 0.651442 0.694472
136 1 0.634505 0.734543 0.627527
215 1 0.624148 0.566858 0.720385
126 1 0.618805 0.602788 0.548081
176 1 0.97391 0.908556 0.910142
260 1 0.751593 0.564237 0.608972
268 1 0.762606 0.545213 0.759883
237 1 0.835819 0.694986 0.651369
187 1 0.882735 0.549571 0.679663
76 1 0.0920751 0.936598 0.553352
228 1 0.244485 0.83508 0.533071
84 1 0.723728 0.917847 0.977963
196 1 0.0538167 0.855349 0.780311
165 1 0.15606 0.845624 0.654202
86 1 0.117413 0.955598 0.948972
309 2 0.367803 0.839868 0.534523
46 1 0.33684 0.969808 0.539387
91 1 0.477294 0.934213 0.659606
311 2 0.129457 0.50541 0.93574
232 1 0.348711 0.852661 0.678475
48 1 0.497322 0.823707 0.555617
101 1 0.359196 0.960036 0.971603
200 1 0.805618 0.802628 0.54695
190 1 0.647568 0.887965 0.568622
152 1 0.736827 0.805101 0.711463
184 1 0.594713 0.885123 0.736973
33 1 0.975345 0.765217 0.668079
329 2 0.857269 0.875315 0.645803
27 1 0.955546 0.815811 0.531762
42 1 0.870938 0.887035 0.797432
217 1 0.968278 0.916919 0.639821
338 2 0.871087 0.776785 0.750595
110 1 0.931328 0.507993 0.824376
77 1 0.104277 0.537357 0.531849
276 1 0.224172 0.800329 0.769559
2 1 0.15767 0.62509 0.880008
251 1 0.226066 0.725763 0.992069
90 1 0.0595783 0.562381 0.773039
43 1 0.101266 0.711314 0.740151
119 1 0.495535 0.684342 0.513899
168 1 0.363035 0.700609 0.723538
133 1 0.305948 0.633203 0.895934
186 1 0.316246 0.564914 0.75402
325 2 0.409915 0.663536 0.830148
153 1 0.492387 0.578402 0.80771
175 1 0.805266 0.813219 0.910474
19 1 0.850892 0.945001 0.516913
279 1 0.522523 0.528328 0.940682
85 1 0.64007 0.617192 0.877728
183 1 0.512383 0.712759 0.890482
209 1 0.743871 0.675635 0.968584
208 1 0.910409 0.538525 0.542716
28 1 0.00562628 0.559414 0.960361
282 1 0.92996 0.659368 0.773953
39 1 0.775158 0.699646 0.812791
271 1 0.74587 0.960634 0.660325
330 2 0.0465938 0.676372 0.849465
199 1 0.789418 0.546937 0.921427
305 2 0.453884 0.518977 0.685778
40 1 0.897085 0.657401 0.922354
240 1 0.2313 0.880257 0.928577
300 2 0.242542 0.917084 0.720253
172 1 0.165569 0.971684 0.810138
291 2 0.615033 0.99129 0.801693
151 1 0.11593 0.77889 0.894954
310 2 0.0768978 0.976478 0.714295
173 1 0.341039 0.789773 0.870838
62 1 0.330544 0.931741 0.832191
278 1 0.468905 0.843831 0.951046
188 1 0.456619 0.835501 0.782826
211 1 0.709279 0.894753 0.822029
53 1 0.559599 0.938944 0.901066
226 1 0.638777 0.800187 0.928594
137 1 0.613206 0.733606 0.773435
189 1 0.486006 0.995216 0.791046
253 1 0.959415 0.77049 0.857071
303 2 0.411597 0.532211 0.885887
357 2 0.661713 0.507733 0.971736
280 1 0.418628 0.644165 0.986544
ITEM: TIMESTEP
20000
ITEM: NUMBER OF ATOMS
360
ITEM: BOX BOUNDS pp pp pp
0.0000000000000000e+00 6.6943295008216896e+00
0.0000000000000000e+00 6.6943295008216896e+00
0.0000000000000000e+00 6.6943295008216896e+00
ITEM: ATOMS id type xs ys zs
73 1 0.242212 0.129579 0.0769729
95 1 0.0700384 0.241227 0.0154782
60 1 0.69952 0.0368851 0.405066
354 2 0.000888123 0.129526 0.0937365
213 1 0.101421 0.0838924 0.153307
316 2 0.905169 0.385599 0.317689
78 1 0.364456 0.129265 0.252671
8 1 0.382338 0.0790236 0.093451
93 1 0.703009 0.484746 0.21758
314 2 0.32982 0.195431 0.134562
308 2 0.0544266 0.488098 0.088422
250 1 0.514167 0.10794 0.215562
353 2 0.624888 0.0847794 0.11567
16 1 0.529091 0.174918 0.0622748
239 1 0.703166 0.156271 0.186563
162 1 0.721662 0.0176437 0.246283
117 1 0.926445 0.238903 0.0463878
231 1 0.86212 0.0929115 0.169257
342 2 0.981965 0.471623 0.195642
198 1 0.979893 0.497552 0.305893
211 1 0.784264 0.148511 0.044792
273 1 0.520442 0.02647 0.0829469
322 2 0.117332 0.299556 0.230114
118 1 0.1161 0.451142 0.228699
346 2 0.147859 0.33836 0.025561
170 1 0.193936 0.197419 0.208462
264 1 0.100237 0.445525 0.487926
88 1 0.0307393 0.361936 0.0905894
269 1 0.189107 0.339997 0.13663
58 1 0.415227 0.45375 0.11459
272 1 0.282769 0.431347 0.19688
74 1 0.440712 0.244235 0.179137
246 1 0.330529 0.334454 0.0759335
220 1 0.579245 0.378118 0.203076
80 1 0.49811 0.332329 0.0655167
144 1 0.637224 0.265479 0.1021
22 1 0.632575 0.413741 0.0695359
82 1 0.946676 0.269645 0.371678
130 1 0.738533 0.329067 0.208101
11 1 0.0311889 0.225772 0.169162
67 1 0.79074 0.300857 0.0361482
113 1 0.861507 0.435352 0.217868
319 2 0.890376 0.361321 0.105538
106 1 0.787817 0.441819 0.0916692
142 1 0.873521 0.28109 0.203259
21 1 0.114054 0.0660591 0.316508
326 2 0.249709 0.169745 0.327016
216 1 0.0249878 0.158959 0.455197
108 1 0.183682 0.131992 0.441311
292 2 0.775109 0.18159 0.421985
297 2 0.0912796 0.038189 0.433946
92 1 0.980454 0.00702467 0.0802038
35 1 0.929817 0.416353 0.432969
71 1 0.252434 0.00579549 0.352602
262 1 0.355113 0.102317 0.400246
193 1 0.433993 0.21824 0.475468
86 1 0.254227 0.0400259 0.207051
30 1 0.429778 0.245467 0.325664
14 1 0.534088 0.119181 0.372768
10 1 0.595121 0.240861 0.250986
307 2 0.632334 0.109037 0.280142
348 2 0.546747 0.246368 0.357254
182 1 0.564473 0.49843 0.312264
50 1 0.158506 0.289431 0.474327
38 1 0.385662 0.456746 0.498126
204 1 0.81059 0.145376 0.305278
103 1 0.881189 0.133413 0.448923
274 1 0.972298 0.142192 0.283127
331 2 0.0478254 0.347629 0.376806
51 1 0.0835796 0.227355 0.332492
59 1 0.00972318 0.35702 0.247777
259 1 0.188582 0.360129 0.32218
3 1 0.800691 0.290947 0.349942
141 1 0.318999 0.283956 0.245489
104 1 0.444023 0.382339 0.256342
337 2 0.251448 0.383469 0.442071
212 1 0.291518 0.277906 0.395861
233 1 0.330713 0.421841 0.353483
5 1 0.537093 0.371294 0.412748
298 2 0.421313 0.352201 0.439087
111 1 0.966726 0.0149852 0.403787
318 2 0.709627 0.231899 0.298145
149 1 0.770602 0.435837 0.4136
66 1 0.659034 0.223898 0.413088
299 2 0.649634 0.441353 0.431952
255 1 0.66515 0.367095 0.335653
301 2 0.52351 0.461261 0.0727569
302 2 0.445885 0.485528 0.366392
32 1 0.389877 0.198478 0.00559929
203 1 0.0882469 0.228029 0.599292
1 1 0.114123 0.118322 0.732473
191 1 0.102153 0.0976988 0.564079
205 1 0.22143 0.194692 0.641992
55 1 0.953024 0.358744 0.950939
54 1 0.327292 0.117819 0.698732
321 2 0.420246 0.0376056 0.64665
351 2 0.353549 0.233942 0.615096
300 2 0.107733 0.0115242 0.802654
135 1 0.467261 0.161864 0.634148
122 1 0.330441 0.129633 0.543656
247 1 0.626524 0.170308 0.676707
112 1 0.61119 0.0677774 0.553179
36 1 0.575457 0.226965 0.540078
252 1 0.553687 0.0333832 0.69439
214 1 0.967027 0.0317357 0.55592
339 2 0.967468 0.18595 0.567608
180 1 0.847332 0.124543 0.61211
257 1 0.72868 0.0242452 0.64583
96 1 0.967123 0.169064 0.707597
312 2 0.760783 0.396014 0.779835
219 1 0.059877 0.373283 0.627589
245 1 0.211122 0.430964 0.636733
359 2 0.182533 0.306498 0.638212
174 1 0.237372 0.432159 0.783262
155 1 0.728553 0.160505 0.530127
340 2 0.249965 0.229834 0.510402
154 1 0.441305 0.320214 0.595707
192 1 0.311628 0.302504 0.720691
47 1 0.291836 0.331427 0.559201
270 1 0.372056 0.44882 0.663233
224 1 0.474973 0.438148 0.820555
330 2 0.921387 0.427329 0.832337
360 2 0.472906 0.453142 0.583106
179 1 0.582525 0.314527 0.687224
243 1 0.578465 0.391123 0.560371
89 1 0.707192 0.391706 0.668405
138 1 0.853162 0.259508 0.517413
357 2 0.467872 0.376075 0.715145
350 2 0.0114156 0.448764 0.709351
310 2 0.992926 0.0564502 0.749445
260 1 0.830177 0.418209 0.556165
187 1 0.761481 0.241206 0.656883
15 1 0.216746 0.403337 0.948558
282 1 0.873675 0.430247 0.709819
158 1 0.923911 0.303659 0.63981
277 1 0.165335 0.176065 0.86741
102 1 0.017929 0.0475424 0.869383
293 2 0.0622537 0.213059 0.788606
227 1 0.794819 0.39737 0.90094
352 2 0.25569 0.19444 0.769863
334 2 0.239015 0.11079 0.954515
97 1 0.251655 0.0591882 0.807522
101 1 0.343628 0.0510229 0.926408
229 1 0.370107 0.177881 0.857139
195 1 0.452743 0.0812983 0.789987
114 1 0.457684 0.253554 0.755154
160 1 0.501642 0.235656 0.906371
207 1 0.739649 0.12067 0.784486
44 1 0.220336 0.0369446 0.643087
123 1 0.665157 0.18812 0.945943
53 1 0.595282 0.147131 0.824075
148 1 0.883646 0.0886417 0.804145
320 2 0.963736 0.412231 0.570358
99 1 0.993956 0.202696 0.89196
197 1 0.801419 0.203686 0.904742
49 1 0.779899 0.0534553 0.910402
150 1 0.91269 0.094105 0.97411
296 2 0.842272 0.179879 0.734772
68 1 0.0925825 0.325483 0.905205
69 1 0.093145 0.102108 0.991339
163 1 0.160863 0.288553 0.769342
57 1 0.565615 0.479615 0.949961
287 1 0.0704266 0.473516 0.958765
25 1 0.49606 0.0629582 0.928835
131 1 0.996014 0.322157 0.774936
110 1 0.859451 0.298502 0.794093
178 1 0.283557 0.303241 0.857564
347 2 0.390027 0.353149 0.824915
279 1 0.429952 0.360655 0.950327
206 1 0.098608 0.457558 0.79255
23 1 0.623298 0.330322 0.940547
280 1 0.629128 0.421668 0.799779
288 1 0.706163 0.278479 0.80109
294 2 0.528148 0.331459 0.832197