ITEM: TIMESTEP
0
ITEM: NUMBER OF ATOMS
360
ITEM: BOX BOUNDS pp pp pp
0.0000000000000000e+00 6.6943295008216896e+00
0.0000000000000000e+00 6.6943295008216896e+00
0.0000000000000000e+00 6.6943295008216896e+00
ITEM: ATOMS id type xs ys zs
322 2 0.19178 0.149504 0.160996
1 1 0.179661 0.120191 0.0390047
184 1 0.0593857 0.143197 0.18009
190 1 0.0992311 0.0100121 0.116501
249 1 0.0218529 0.0912381 0.0174626
273 1 0.179703 0.0522946 0.243962
27 1 0.2857 0.059262 0.118093
168 1 0.306518 0.207128 0.0955293
161 1 0.463976 0.182761 0.0481211
277 1 0.42078 0.146242 0.191527
342 2 0.404724 0.0791871 0.062169
41 1 0.582032 0.0790652 0.115152
229 1 0.703725 0.231358 0.186481
234 1 0.714295 0.095858 0.0530126
331 2 0.742114 0.236155 0.0608907
85 1 0.618944 0.225291 0.05873
231 1 0.685035 0.0687662 0.229579
144 1 0.820787 0.0907505 0.182222
219 1 0.981768 0.240642 0.0485334
313 2 0.944157 0.12611 0.127795
275 1 0.849259 0.247678 0.133824
93 1 0.867896 0.114936 0.0193955
148 1 0.963914 0.0368779 0.241301
68 1 0.132817 0.256414 0.109756
5 1 0.114347 0.404277 0.159678
81 1 0.226217 0.366767 0.0608701
314 2 0.241939 0.435117 0.165617
109 1 0.055996 0.370629 0.0262464
318 2 0.467295 0.289124 0.127065
2 1 0.252921 0.311774 0.20549
145 1 0.376283 0.383804 0.129024
218 1 0.552181 0.258552 0.205504
279 1 0.519467 0.351584 0.0410355
296 2 0.639823 0.340876 0.124882
259 1 0.520025 0.418462 0.174454
46 1 0.644054 0.466912 0.0877256
258 1 0.990251 0.325921 0.178107
31 1 0.782706 0.396541 0.14183
44 1 0.901622 0.447919 0.215851
103 1 0.909151 0.394979 0.0686901
311 2 0.79986 0.456322 0.0327038
340 2 0.236319 0.10566 0.458242
326 2 0.00489659 0.126351 0.338544
29 1 0.155754 0.153546 0.357569
114 1 0.0853032 0.00443972 0.368804
181 1 0.0614166 0.114248 0.477999
292 2 0.342093 0.0608252 0.258056
120 1 0.288207 0.016842 0.378733
102 1 0.265734 0.175121 0.25602
26 1 0.462933 0.236843 0.47039
64 1 0.401983 0.144602 0.348235
94 1 0.292169 0.214501 0.424904
257 1 0.62491 0.00303002 0.355062
191 1 0.514986 0.0875796 0.427774
50 1 0.547709 0.118784 0.272091
17 1 0.636501 0.171316 0.418756
332 2 0.633261 0.22175 0.29707
216 1 0.917391 0.181614 0.260808
315 2 0.922797 0.156264 0.449248
233 1 0.759913 0.169813 0.316015
344 2 0.846319 0.0718305 0.299723
251 1 0.790162 0.105351 0.458921
30 1 0.933401 0.0310188 0.393796
130 1 0.153325 0.494058 0.438169
265 1 0.0436785 0.406054 0.309808
128 1 0.113556 0.283389 0.253481
49 1 0.00763722 0.258575 0.385858
10 1 0.140747 0.333425 0.406087
192 1 0.203741 0.416742 0.296754
163 1 0.014607 0.397604 0.464541
312 2 0.240145 0.293502 0.33431
319 2 0.280276 0.485808 0.373321
299 2 0.395889 0.27909 0.372387
185 1 0.40775 0.281786 0.251915
16 1 0.367517 0.428585 0.294504
35 1 0.306498 0.36761 0.421899
45 1 0.458341 0.400232 0.430336
351 2 0.482619 0.377101 0.300189
104 1 0.701593 0.30682 0.378589
7 1 0.648699 0.364941 0.250046
253 1 0.601668 0.427614 0.371339
252 1 0.535424 0.27598 0.357365
330 2 0.943339 0.32412 0.294559
124 1 0.75388 0.435834 0.469924
256 1 0.857869 0.258285 0.414062
165 1 0.874238 0.414538 0.382413
86 1 0.805041 0.315179 0.276359
224 1 0.751199 0.465991 0.297772
63 1 0.164945 0.209464 0.526418
274 1 0.0551525 0.138548 0.648563
210 1 0.162183 0.0503112 0.739613
138 1 0.225404 0.187221 0.676574
162 1 0.243958 0.0764403 0.576306
358 2 0.0815556 0.0365965 0.578795
78 1 0.497729 0.179218 0.711749
11 1 0.371525 0.120405 0.649718
179 1 0.334529 0.248433 0.559232
353 2 0.393454 0.00975181 0.605085
71 1 0.490868 0.0222227 0.728951
22 1 0.312855 0.00256442 0.702416
261 1 0.371973 0.0881792 0.502839
202 1 0.587236 0.200241 0.565696
117 1 0.631829 0.0897314 0.667499
254 1 0.510633 0.0600684 0.578619
223 1 0.729859 0.210182 0.665123
268 1 0.645912 0.0318265 0.521338
149 1 0.776727 0.0679093 0.612881
199 1 0.922772 0.0920991 0.562614
173 1 0.853309 0.214184 0.568824
150 1 0.8901 0.178954 0.708401
4 1 0.048325 0.430004 0.602689
40 1 0.0988425 0.280323 0.642671
127 1 0.196435 0.391829 0.539426
327 2 0.22113 0.3135 0.651285
180 1 0.154727 0.418873 0.707173
147 1 0.472739 0.30651 0.609502
119 1 0.317881 0.394883 0.63267
334 2 0.414327 0.380221 0.710841
347 2 0.389136 0.359002 0.523389
172 1 0.456586 0.46077 0.600824
139 1 0.330944 0.490737 0.509221
19 1 0.350233 0.261207 0.715455
304 2 0.588066 0.283565 0.675833
142 1 0.706125 0.345078 0.709266
280 1 0.570146 0.420193 0.68679
333 2 0.693142 0.387699 0.587397
276 1 0.72859 0.28281 0.528994
38 1 0.587635 0.350049 0.504701
166 1 0.834964 0.432514 0.665181
302 2 0.828332 0.294857 0.665307
42 1 0.954909 0.31916 0.676448
83 1 0.885515 0.35956 0.532032
211 1 0.996141 0.25806 0.540777
286 1 0.128932 0.210034 0.799378
263 1 0.140993 0.0861897 0.900592
55 1 0.0107261 0.104471 0.815699
118 1 0.092739 0.221933 0.952405
56 1 0.280431 0.140661 0.821707
356 2 0.412626 0.108648 0.773666
222 1 0.439977 0.184516 0.881839
108 1 0.322781 0.0975597 0.95599
269 1 0.255644 0.247294 0.936121
288 1 0.669003 0.0439308 0.917623
158 1 0.635255 0.231513 0.788468
101 1 0.561477 0.110539 0.842063
69 1 0.729277 0.0984256 0.788133
197 1 0.705692 0.192957 0.927113
301 2 0.572553 0.156338 0.96192
62 1 0.503144 0.0485144 0.978315
317 2 0.977609 0.174894 0.916441
320 2 0.790407 0.0588623 0.920657
146 1 0.858283 0.160174 0.866281
206 1 0.921734 0.0328463 0.910627
112 1 0.8682 0.0375363 0.760336
355 2 0.017844 0.487727 0.913126
95 1 0.128295 0.473555 0.959822
305 2 0.0645929 0.329399 0.750498
115 1 0.112976 0.351791 0.871203
349 2 0.213396 0.443921 0.828635
220 1 0.237941 0.320619 0.794842
100 1 0.387379 0.302436 0.981354
70 1 0.462826 0.49401 0.750428
283 1 0.274532 0.408413 0.930919
310 2 0.368971 0.27754 0.845544
61 1 0.469345 0.401602 0.898734
84 1 0.335355 0.431614 0.789914
325 2 0.386033 0.442605 0.998613
306 2 0.577658 0.45422 0.953219
32 1 0.578858 0.30322 0.918187
106 1 0.50037 0.306528 0.776357
96 1 0.626402 0.428833 0.83814
182 1 0.692228 0.35526 0.997058
278 1 0.989133 0.447643 0.754251
281 1 0.788754 0.399109 0.882634
350 2 0.879298 0.39771 0.798112
134 1 0.937446 0.393942 0.907481
201 1 0.812325 0.283803 0.795225
25 1 0.976444 0.271209 0.832078
171 1 0.832406 0.279087 0.969161
287 1 0.0767142 0.663862 0.0789012
164 1 0.216708 0.694921 0.0419488
246 1 0.17155 0.549034 0.137556
328 2 0.114593 0.64058 0.2045
160 1 0.0305363 0.532886 0.196831
354 2 0.162706 0.58702 0.00249229
176 1 0.255417 0.693759 0.21337
196 1 0.361078 0.6449 0.109218
289 2 0.383343 0.74761 0.169752
15 1 0.29903 0.537382 0.234234
183 1 0.28257 0.511103 0.0417396
338 2 0.411039 0.508857 0.186151
123 1 0.491914 0.504869 0.02281
37 1 0.42395 0.640875 0.243985
156 1 0.499018 0.657814 0.024454
59 1 0.508353 0.729274 0.152729
237 1 0.533455 0.566677 0.14521
66 1 0.643037 0.668393 0.0826591
255 1 0.715413 0.572442 0.187504
316 2 0.603291 0.573496 0.0279197
244 1 0.770383 0.709608 0.166477
209 1 0.840871 0.567348 0.0950071
194 1 0.935095 0.683716 0.15889
65 1 0.993265 0.518071 0.0470613
111 1 0.925305 0.65727 0.00447029
266 1 0.117945 0.760996 0.191988
213 1 0.169884 0.891251 0.210974
187 1 0.156155 0.841348 0.0600133
359 2 0.24015 0.931712 0.114377
248 1 0.0276458 0.886467 0.159538
308 2 0.0677144 0.977518 0.240858
226 1 0.290779 0.820801 0.141066
232 1 0.404566 0.783614 0.0273922
47 1 0.314964 0.934784 0.241566
293 2 0.495547 0.874648 0.117281
99 1 0.425367 0.994005 0.143826
48 1 0.35488 0.946435 0.0209846
250 1 0.571149 0.801997 0.0406662
9 1 0.627704 0.812357 0.185415
270 1 0.725197 0.814694 0.0424081
77 1 0.72565 0.933782 0.160804
52 1 0.603275 0.9406 0.0602554
43 1 0.57015 0.943265 0.212231
357 2 0.834437 0.751623 0.0605999
137 1 0.987181 0.786642 0.0405503
294 2 0.855083 0.979982 0.198173
39 1 0.792938 0.968226 0.0107356
121 1 0.873363 0.823732 0.157658
324 2 0.981491 0.783803 0.230202
242 1 0.93514 0.997666 0.0924287
129 1 0.02521 0.677096 0.300109
155 1 0.0365034 0.720536 0.44916
72 1 0.174216 0.728749 0.366089
345 2 0.0971871 0.626222 0.40427
241 1 0.23083 0.616466 0.459041
136 1 0.159813 0.561953 0.304683
341 2 0.164939 0.714721 0.493891
303 2 0.255554 0.649528 0.327623
236 1 0.360372 0.578764 0.366484
169 1 0.341975 0.731215 0.361936
177 1 0.394292 0.632936 0.497738
20 1 0.503999 0.516513 0.291793
34 1 0.506067 0.700436 0.378402
3 1 0.508948 0.555321 0.44013
79 1 0.653901 0.744137 0.398396
122 1 0.601562 0.661467 0.265864
214 1 0.665173 0.569836 0.3981
336 2 0.640623 0.502298 0.268354
36 1 0.736288 0.660914 0.494305
76 1 0.87157 0.597388 0.257406
13 1 0.992551 0.542105 0.377615
204 1 0.881805 0.749564 0.296325
126 1 0.753826 0.654423 0.320556
58 1 0.892825 0.653635 0.426641
307 2 0.80433 0.559821 0.391698
208 1 0.1698 0.996193 0.487503
151 1 0.0787359 0.827083 0.3168
271 1 0.214576 0.881523 0.379895
329 2 0.277511 0.809718 0.280687
87 1 0.445984 0.842742 0.250374
141 1 0.450637 0.989148 0.311808
225 1 0.291219 0.766679 0.497027
105 1 0.361141 0.886612 0.387914
110 1 0.451724 0.7914 0.497887
80 1 0.522832 0.92248 0.477582
125 1 0.741379 0.81256 0.281018
57 1 0.557647 0.85595 0.355321
346 2 0.67401 0.91693 0.276929
92 1 0.688829 0.890153 0.431585
291 2 0.588794 0.811085 0.497419
18 1 0.803798 0.793573 0.434734
264 1 0.949203 0.852409 0.423557
284 1 0.954416 0.904664 0.291598
321 2 0.843105 0.872203 0.319461
189 1 0.777067 0.978155 0.338774
227 1 0.818339 0.952807 0.499705
228 1 0.099763 0.694185 0.606294
23 1 0.184763 0.546797 0.593296
267 1 0.238168 0.55894 0.747692
135 1 0.0380549 0.576345 0.686864
170 1 0.0390623 0.572958 0.525419
186 1 0.25393 0.690029 0.619343
193 1 0.341194 0.572582 0.642434
175 1 0.404199 0.72132 0.636842
159 1 0.701832 0.502724 0.704503
247 1 0.522208 0.606103 0.658396
24 1 0.619074 0.501883 0.53887
88 1 0.691731 0.659704 0.649402
360 2 0.727229 0.543078 0.572413
337 2 0.571565 0.533358 0.748071
73 1 0.580315 0.672104 0.516873
339 2 0.931378 0.523062 0.629852
140 1 0.936089 0.696114 0.585827
285 1 0.826195 0.595516 0.658994
74 1 0.972488 0.704598 0.738463
235 1 0.827205 0.74697 0.714397
323 2 0.797396 0.718092 0.582938
188 1 0.88487 0.525993 0.512094
262 1 0.021216 0.827254 0.611458
107 1 0.0857053 0.828303 0.744366
89 1 0.17688 0.932004 0.614589
203 1 0.0152535 0.9936 0.698146
309 2 0.174593 0.796312 0.650728
352 2 0.209718 0.928606 0.734576
54 1 0.134008 0.839201 0.501043
116 1 0.302393 0.83559 0.640968
33 1 0.316925 0.941773 0.524465
91 1 0.442258 0.901728 0.647373
343 2 0.480447 0.756667 0.736233
133 1 0.609449 0.923782 0.631693
131 1 0.565081 0.767391 0.622341
245 1 0.704274 0.799199 0.554331
98 1 0.690102 0.816449 0.71711
295 2 0.88961 0.982184 0.615919
143 1 0.776243 0.928671 0.672704
272 1 0.912562 0.880813 0.729907
53 1 0.866994 0.835406 0.572259
21 1 0.996261 0.951033 0.519015
67 1 0.108868 0.529584 0.826021
215 1 0.139751 0.670177 0.766528
82 1 0.111318 0.663077 0.924553
298 2 0.208427 0.730806 0.882994
12 1 0.241482 0.581787 0.898718
230 1 0.2962 0.687156 0.773771
28 1 0.399436 0.555614 0.912933
300 2 0.353333 0.560453 0.796492
6 1 0.337732 0.691638 0.923434
90 1 0.446506 0.640554 0.774843
335 2 0.722325 0.707229 0.769388
282 1 0.588361 0.706934 0.784245
205 1 0.694028 0.527093 0.949278
152 1 0.55552 0.578731 0.872468
195 1 0.628846 0.709276 0.929841
154 1 0.707053 0.593822 0.821505
51 1 0.768931 0.673373 0.983824
157 1 0.852983 0.534875 0.79169
260 1 0.985019 0.744163 0.888154
8 1 0.856281 0.528021 0.944694
167 1 0.971938 0.592813 0.855056
243 1 0.841168 0.674415 0.848318
97 1 0.188896 0.973549 0.99471
239 1 0.117747 0.945087 0.842841
221 1 0.105603 0.819703 0.906801
238 1 0.231128 0.83022 0.81084
207 1 0.0427177 0.928856 0.992203
174 1 0.254958 0.976542 0.856848
153 1 0.411817 0.998721 0.855373
200 1 0.495393 0.894324 0.954772
348 2 0.368459 0.876687 0.911643
60 1 0.375606 0.817101 0.781137
178 1 0.472268 0.751816 0.898863
14 1 0.271516 0.828154 0.961935
198 1 0.646737 0.88495 0.930657
240 1 0.523205 0.866352 0.776618
290 2 0.542289 0.983786 0.841196
75 1 0.657417 0.962905 0.778737
212 1 0.740594 0.791551 0.866232
132 1 0.859185 0.82588 0.959116
297 2 0.876431 0.783087 0.827644
217 1 0.965662 0.894294 0.872411
113 1 0.794693 0.940802 0.84891
ITEM: TIMESTEP
70000
ITEM: NUMBER OF ATOMS
360
ITEM: BOX BOUNDS pp pp pp
0.0000000000000000e+00 6.6943295008216896e+00
0.0000000000000000e+00 6.6943295008216896e+00
0.0000000000000000e+00 6.6943295008216896e+00
ITEM: ATOMS id type xs ys zs
184 1 0.0468778 0.195053 0.1254
273 1 0.211692 0.201133 0.196186
263 1 0.234862 0.0749971 0.0665062
27 1 0.0898864 0.0369299 0.128204
342 2 0.19798 0.0611505 0.208949
168 1 0.226297 0.241114 0.0540301
252 1 0.561837 0.0291909 0.400613
191 1 0.323681 0.0781681 0.217444
314 2 0.331192 0.156861 0.100717
218 1 0.449733 0.123982 0.139895
351 2 0.453492 0.211894 0.229011
85 1 0.676838 0.0742872 0.112131
233 1 0.90099 0.220732 0.473871
123 1 0.670741 0.26112 0.0954084
161 1 0.528584 0.0259312 0.0554065
229 1 0.588873 0.184284 0.230293
275 1 0.74208 0.177651 0.216171
219 1 0.766316 0.155432 0.0259324
258 1 0.880803 0.144766 0.153413
350 2 0.802198 0.246133 0.115213
35 1 0.475036 0.493043 0.47573
46 1 0.720125 0.469144 0.104588
322 2 0.966788 0.187463 0.2382
331 2 0.874716 0.3776 0.299845
128 1 0.0689961 0.352007 0.12638
65 1 0.0906508 0.48661 0.0619905
5 1 0.23383 0.38768 0.14529
173 1 0.0202641 0.430503 0.249975
144 1 0.972116 0.103509 0.0156065
145 1 0.342871 0.392633 0.030588
185 1 0.346069 0.282713 0.150127
7 1 0.44628 0.397694 0.15072
353 2 0.173367 0.0175823 0.388482
337 2 0.631116 0.3923 0.0399865
304 2 0.467746 0.0322505 0.481763
279 1 0.507275 0.266326 0.117242
114 1 0.959471 0.0199455 0.22011
51 1 0.601867 0.413825 0.180565
171 1 0.911164 0.241156 0.0385054
165 1 0.895233 0.491332 0.362334
31 1 0.766827 0.347613 0.201446
109 1 0.782514 0.349795 0.0373181
86 1 0.919854 0.295792 0.190586
115 1 0.939542 0.420712 0.0849776
104 1 0.964607 0.296793 0.343987
29 1 0.0778701 0.126387 0.258046
120 1 0.219247 0.112197 0.325191
181 1 0.0765969 0.164576 0.417171
294 2 0.63374 0.154229 0.0230049
281 1 0.829965 0.359932 0.413315
24 1 0.745643 0.444138 0.320975
16 1 0.345214 0.198235 0.311504
102 1 0.353093 0.0612805 0.400973
64 1 0.469143 0.1016 0.295722
296 2 0.416058 0.172542 0.412875
125 1 0.839831 0.00460048 0.444327
17 1 0.81811 0.236865 0.321262
276 1 0.572263 0.210566 0.403305
80 1 0.702047 0.115746 0.368543
77 1 0.663848 0.0235217 0.262221
259 1 0.49513 0.362657 0.00820567
54 1 0.0173643 0.00384259 0.378198
231 1 0.816332 0.0382763 0.281446
216 1 0.929851 0.136413 0.349004
332 2 0.821706 0.146363 0.414687
338 2 0.263404 0.46611 0.299565
329 2 0.265713 0.304322 0.255242
94 1 0.0705287 0.281088 0.254035
330 2 0.0121291 0.458498 0.386237
49 1 0.0891059 0.344079 0.427795
163 1 0.166981 0.376914 0.299043
10 1 0.215321 0.258692 0.380067
236 1 0.246958 0.421787 0.417209
182 1 0.858377 0.486394 0.213741
37 1 0.360048 0.379529 0.29325
312 2 0.341975 0.302131 0.398017
202 1 0.460428 0.337379 0.424526
20 1 0.585764 0.430835 0.344421
38 1 0.511716 0.307921 0.269905
360 2 0.686388 0.377548 0.414221
205 1 0.658869 0.294804 0.314314
223 1 0.724428 0.244619 0.467912
62 1 0.517378 0.166202 0.00171277
203 1 0.116479 -0.00173853 0.510227
112 1 0.0335933 0.0672203 0.631546
56 1 0.108699 0.196146 0.619821
22 1 0.201653 0.0324788 0.639298
295 2 0.92852 0.0123424 0.905823
197 1 0.414516 0.141902 0.685141
254 1 0.358031 0.0539261 0.560526
261 1 0.268908 0.186667 0.644069
343 2 0.549633 0.474952 0.658274
147 1 0.50395 0.240098 0.759612
39 1 0.562731 0.155318 0.658524
158 1 0.694409 0.233667 0.620362
149 1 0.696974 0.0584922 0.63174
356 2 0.679175 0.153272 0.759778
199 1 0.798669 0.219176 0.74981
251 1 0.805677 0.132223 0.542724
256 1 0.885671 0.106863 0.67888
313 2 0.079702 0.015532 0.995264
8 1 0.677276 0.422928 0.920163
146 1 0.830294 0.015837 0.985143
134 1 0.867812 0.472542 0.797333
349 2 0.770093 0.377439 0.856168
84 1 0.529789 0.374236 0.843762
220 1 0.178827 0.298495 0.703243
179 1 0.233771 0.428133 0.578707
211 1 0.0892288 0.351649 0.58562
278 1 0.104164 0.434696 0.722778
315 2 0.045866 0.31154 0.718293
40 1 0.909598 0.365449 0.928273
340 2 0.306813 0.300766 0.601238
26 1 0.319543 0.41369 0.702496
280 1 0.469477 0.289267 0.60381
327 2 0.485648 0.401059 0.549788
63 1 0.362778 0.384878 0.51623
172 1 0.47431 0.383996 0.710281
347 2 0.569416 0.216043 0.535156
230 1 0.38483 0.501381 0.799175
222 1 0.625253 0.361994 0.667499
119 1 0.284804 0.491265 0.92437
159 1 0.719895 0.380976 0.531925
208 1 0.963113 0.237628 0.616693
101 1 0.825848 0.29658 0.596055
167 1 0.778705 0.374613 0.720141
302 2 0.853369 0.397567 0.530741
42 1 0.958431 0.393599 0.665252
268 1 0.633314 0.115971 0.508829
272 1 0.807104 -0.00585439 0.721457
55 1 0.0149283 0.176915 0.748665
286 1 0.16269 0.139346 0.748572
174 1 0.218383 0.0670237 0.893483
118 1 0.0513634 0.0612966 0.86472
305 2 0.10366 0.19485 0.873929
138 1 0.221157 0.229998 0.866134
344 2 0.0507029 0.240257 0.514006
325 2 0.99848 0.417729 0.832878
153 1 0.303231 0.13436 0.781007
318 2 0.272901 0.158599 0.967139
108 1 0.409789 0.168938 0.867671
310 2 0.428039 0.476434 0.946986
170 1 0.109942 0.483868 0.501785
297 2 0.646345 0.422216 0.784088
200 1 0.434371 -0.00828994 0.738126
301 2 0.500559 0.104081 0.77404
41 1 0.504189 0.0217078 0.878177
198 1 0.596172 0.0228576 0.751138
234 1 0.592766 0.147135 0.859265
288 1 0.751507 0.10516 0.869852
93 1 0.655479 0.0267767 0.961985
25 1 0.795318 0.25736 0.911928
68 1 0.97632 0.206569 0.904079
339 2 0.879296 0.140882 0.941354
69 1 0.885522 0.101095 0.823858
142 1 0.924449 0.292567 0.786707
103 1 0.813319 0.503502 0.958703
269 1 0.189705 0.383048 0.986643
150 1 0.0882598 0.322972 0.839241
355 2 0.0700898 0.418038 0.957503
274 1 0.210152 0.274445 0.533916
19 1 0.359197 0.272367 0.743599
23 1 0.227425 0.38698 0.819855
306 2 0.280238 0.313644 0.941155
61 1 0.379222 0.358732 0.879086
201 1 0.670527 0.291721 0.798665
293 2 0.489651 0.248738 0.907239
32 1 0.628542 0.272483 0.94507
78 1 0.473299 0.1494 0.518405
283 1 0.121797 0.497258 0.872074
100 1 0.381942 0.238742 1.00227
345 2 0.0433935 0.501952 0.598245
359 2 0.369062 0.0356406 0.866057
48 1 0.377584 0.0718814 1.0084
2 1 0.123328 0.146226 0.988514
4 1 0.956339 0.0770323 0.506059
177 1 0.422391 0.488676 0.612795
124 1 0.836963 0.487433 0.633602
117 1 0.521789 0.0209933 0.604332
188 1 0.96292 0.353151 0.503551
157 1 0.550673 0.513623 0.934552
83 1 0.580307 0.335672 0.507057
81 1 0.0656843 0.285085 0.992471
141 1 0.350056 0.230687 0.509496
33 1 0.212554 0.123738 0.50588
187 1 0.0957065 0.647956 0.0674946
87 1 0.230195 0.651277 0.152667
308 2 0.220185 0.686348 0.0420372
1 1 0.245947 0.535061 0.0715353
96 1 0.556513 0.528385 0.104668
183 1 0.400148 0.639978 0.170058
237 1 0.4022 0.525649 0.0534659
95 1 0.355184 0.671902 0.0274518
76 1 0.815135 0.686326 0.0303144
122 1 0.687563 0.636882 0.106654
253 1 0.560549 0.683462 0.183332
255 1 0.659111 0.543321 0.230848
192 1 0.337379 0.483604 0.189657
59 1 0.438901 0.817618 0.0019366
245 1 0.674171 0.963768 0.475299
287 1 0.971097 0.719303 0.152411
209 1 0.998956 0.564986 0.162819
66 1 0.830809 0.636647 0.176584
130 1 0.159278 0.628195 0.481651
30 1 0.908288 0.90725 0.337574
246 1 0.154186 0.776219 0.123473
97 1 0.142279 0.921056 0.0355777
277 1 0.254354 0.940827 0.159145
151 1 0.0350145 0.853125 0.194415
190 1 0.0320395 0.788349 0.0279711
105 1 0.461228 0.80666 0.163805
164 1 0.326332 0.794649 0.10026
226 1 0.405799 0.969093 0.125071
90 1 0.521835 0.663714 0.0203045
289 2 0.520929 0.900542 0.0893485
52 1 0.598576 0.81578 0.234189
156 1 0.585479 0.791751 0.0764661
250 1 0.728327 0.777072 0.129954
212 1 0.649483 0.926981 0.124529
50 1 0.52595 0.960731 0.249654
257 1 0.749703 0.890315 0.258697
248 1 0.881449 0.865574 0.184392
148 1 0.953641 0.960337 0.0783057
324 2 0.0177589 0.565058 0.289229
321 2 0.947993 0.782882 0.264044
44 1 0.0993703 0.671165 0.228246
13 1 0.122297 0.504161 0.356455
126 1 0.00497259 0.608752 0.416643
136 1 0.161515 0.709121 0.353589
319 2 0.23531 0.5428 0.420458
196 1 0.494907 0.530121 0.262797
15 1 0.247435 0.594945 0.309452
303 2 0.373626 0.61138 0.300552
34 1 0.453529 0.719701 0.288099
169 1 0.327067 0.673906 0.427721
73 1 0.487305 0.621594 0.393274
45 1 0.363884 0.514882 0.384516
9 1 0.692265 0.701651 0.253856
336 2 0.57483 0.628927 0.297998
79 1 0.588967 0.744315 0.362079
214 1 0.638273 0.567159 0.384576
284 1 0.82898 0.763348 0.32213
88 1 0.786147 0.510098 0.482904
358 2 0.724448 0.97267 0.35836
36 1 0.747508 0.681279 0.449866
311 2 0.87672 0.613407 0.423368
58 1 0.941776 0.66362 0.296232
137 1 0.785175 0.602101 0.323316
266 1 0.194746 0.835671 0.265188
354 2 0.182108 0.759551 0.465595
160 1 0.0390849 0.782429 0.359605
326 2 0.034162 0.894192 0.314627
271 1 0.126586 0.977447 0.271242
204 1 0.00396516 0.897691 0.487471
47 1 0.149451 0.885907 0.396507
99 1 0.38605 0.864549 0.284232
213 1 0.302223 0.72932 0.27225
110 1 0.455036 0.77723 0.431971
176 1 0.283683 0.818921 0.398684
43 1 0.271908 0.959887 0.322723
133 1 0.392799 0.921517 0.427555
57 1 0.257499 0.970644 0.48297
18 1 0.89773 0.741305 0.444927
189 1 0.803834 0.993948 0.13734
265 1 0.146771 0.51033 0.203528
357 2 0.707843 0.795402 0.347646
346 2 0.500234 0.860395 0.346789
244 1 0.628243 0.895692 0.359692
92 1 0.782584 0.862042 0.420749
317 2 0.916999 0.547504 0.0743295
239 1 0.885386 0.839226 0.0304259
91 1 0.531808 0.902488 0.479382
299 2 0.394089 1.00172 0.283394
316 2 0.782125 0.568757 0.0667279
98 1 0.66484 0.811281 0.501465
323 2 0.87728 0.877529 0.485909
121 1 0.954409 0.654121 0.00776096
131 1 0.598325 0.668676 0.492701
180 1 0.171059 0.564944 0.632129
140 1 0.0325487 0.628396 0.573043
155 1 0.269732 0.718753 0.587696
241 1 0.116235 0.726094 0.660739
14 1 0.358387 0.608117 0.687049
341 2 0.408328 0.725148 0.637889
139 1 0.428281 0.632621 0.544393
127 1 0.298757 0.56073 0.538732
111 1 0.970511 0.508354 0.949462
235 1 0.554391 0.616906 0.64638
166 1 0.705792 0.623412 0.579008
207 1 0.295313 0.947429 0.969138
333 2 0.674798 0.750306 0.607918
320 2 0.773282 0.991272 0.553544
3 1 0.611016 0.507623 0.539955
228 1 0.971595 0.543776 0.708188
243 1 0.826689 0.615128 0.738272
89 1 0.954679 0.695337 0.705526
285 1 0.874715 0.631002 0.578437
21 1 0.0651329 0.891845 0.639176
264 1 0.192092 0.846236 0.55756
194 1 0.691614 0.573349 0.968643
162 1 0.198167 0.864801 0.708731
290 2 0.43769 0.957869 0.983439
72 1 0.374088 0.822531 0.553398
116 1 0.312668 0.749987 0.73184
225 1 0.318056 0.926592 0.644382
240 1 0.451711 0.8451 0.700757
224 1 0.933896 0.505161 0.506095
175 1 0.527015 0.770958 0.57031
11 1 0.631245 0.906412 0.620245
210 1 0.117638 0.98763 0.758998
242 1 0.733118 0.887158 0.993659
143 1 0.732514 0.848818 0.729797
74 1 0.807113 0.737132 0.659557
291 2 0.809234 0.758271 0.534073
227 1 0.912252 0.951933 0.592138
262 1 0.927562 0.803485 0.587592
135 1 0.890279 0.850306 0.729488
53 1 0.778957 0.870839 0.578276
309 2 0.208494 0.655847 0.727515
67 1 0.10794 0.604286 0.762951
12 1 0.246096 0.64512 0.909485
215 1 0.0936171 0.659991 0.916115
335 2 0.04055 0.709414 0.817485
267 1 0.249084 0.543028 0.783599
328 2 0.161163 0.569326 0.956886
270 1 0.954817 0.76208 0.893422
186 1 0.472956 0.692754 0.773952
298 2 0.326886 0.651792 0.799406
6 1 0.424351 0.606178 0.90875
193 1 0.549743 0.506174 0.777114
217 1 0.857596 0.925788 0.854729
334 2 0.636021 0.614829 0.747863
154 1 0.589156 0.634665 0.872387
70 1 0.700119 0.71538 0.806348
152 1 0.673308 0.749136 0.957137
106 1 0.714168 0.531642 0.8263
178 1 0.580811 0.900416 0.960309
260 1 0.962718 0.612261 0.837969
195 1 0.82286 0.639199 0.889308
113 1 0.798219 0.796119 0.877657
249 1 -0.00262188 0.905115 0.922006
82 1 0.218284 0.797104 0.963628
292 2 0.0829557 0.798546 0.911721
206 1 0.0442195 0.849744 0.785549
238 1 0.171609 0.75834 0.81434
221 1 0.145673 0.924402 0.882545
28 1 0.537322 0.767737 0.893397
60 1 0.361516 0.744551 0.870179
348 2 0.34912 0.874689 0.757407
352 2 0.268604 0.862792 0.868343
71 1 0.412294 0.886602 0.866393
107 1 0.967779 0.994587 0.756229
247 1 0.674796 0.507499 0.675866
129 1 0.0618609 0.757213 0.519285
232 1 0.282646 0.983013 0.796266
75 1 0.573477 0.885658 0.802325
282 1 0.595508 0.757451 0.705494
300 2 0.676439 0.83046 0.858092
132 1 0.708666 0.95516 0.84551
307 2 0.844991 0.729366 0.778017
ITEM: TIMESTEP
140000
ITEM: NUMBER OF ATOMS
360
ITEM: BOX BOUNDS pp pp pp
0.0000000000000000e+00 6.6943295008216896e+00
0.0000000000000000e+00 6.6943295008216896e+00
0.0000000000000000e+00 6.6943295008216896e+00
ITEM: ATOMS id type xs ys zs
43 1 0.117776 0.0691336 0.159627
29 1 0.0811514 0.249235 0.145123
181 1 0.0187114 0.127368 0.0216295
263 1 0.174357 0.142006 0.0253826
273 1 0.251832 0.161857 0.168559
168 1 0.310259 0.0563264 0.0192966
314 2 0.374133 0.111016 0.119469
279 1 0.334679 0.225085 0.0381809
192 1 0.457912 0.182854 0.199081
48 1 0.458603 0.0890327 0.0254858
317 2 0.34996 0.242216 0.246396
350 2 0.642926 0.0893097 0.0701145
32 1 0.718747 0.181511 0.106395
275 1 0.689776 0.104706 0.237759
85 1 0.546278 0.0630803 0.16676
123 1 0.573571 0.187539 0.0980851
121 1 0.844142 0.0785255 0.143539
258 1 0.871166 0.228388 0.160952
233 1 0.98174 0.136216 0.195163
17 1 0.771292 0.380286 0.349485
10 1 0.0740323 0.379515 0.493952
329 2 0.21411 0.281483 0.149075
128 1 0.0427221 0.453325 0.0551081
163 1 0.168367 0.407323 0.131887
3 1 0.860434 0.462028 0.460847
306 2 0.0816801 0.33301 0.050411
104 1 0.99217 0.362161 0.184686
312 2 0.439001 0.262116 0.487419
172 1 0.196611 0.308156 0.0282774
61 1 0.407822 0.385936 0.00923318
5 1 0.321001 0.348216 0.157645
73 1 0.441569 0.462663 0.164644
351 2 0.60978 0.224504 0.214309
145 1 0.489194 0.315252 0.119366
51 1 0.747923 0.271157 0.235574
296 2 0.5574 0.414452 0.204477
255 1 0.675036 0.435412 0.22164
96 1 0.628391 0.327608 0.129373
46 1 0.733659 0.435199 0.0831096
219 1 0.852836 0.162539 0.00781679
86 1 0.946305 0.276885 0.0445732
84 1 0.830727 0.400397 0.195423
355 2 0.916966 0.411142 0.080949
171 1 0.786312 0.301166 0.0623163
265 1 0.931215 0.446051 0.324833
309 2 0.468875 0.443809 0.497095
271 1 0.162499 0.112236 0.423998
94 1 0.132735 0.165774 0.283949
185 1 0.364354 0.0895063 0.270652
120 1 0.284126 0.183483 0.34979
78 1 0.438463 0.206078 0.369957
266 1 0.297078 0.0409217 0.426009
342 2 0.902192 0.0206532 0.247487
191 1 0.501485 0.0121013 0.310179
77 1 0.71422 0.0804649 0.389726
252 1 0.578464 0.147588 0.311021
72 1 0.578485 0.227229 0.442548
54 1 0.739271 0.232198 0.382093
287 1 0.883406 0.0411749 0.39815
276 1 0.813759 0.317933 0.486395
302 2 0.0119583 0.238021 0.261216
231 1 0.989342 0.147537 0.356845
30 1 0.0526006 0.0185422 0.445883
223 1 0.900186 0.201519 0.463267
248 1 0.843323 0.143763 0.279676
274 1 0.179621 0.260092 0.460633
173 1 0.103051 0.412647 0.295464
236 1 0.197732 0.400302 0.407093
216 1 0.0468763 0.288871 0.380514
37 1 0.209895 0.297922 0.288853
155 1 0.576293 0.0592721 0.445841
7 1 0.574602 0.463803 0.0858559
183 1 0.267742 0.441677 0.273733
35 1 0.366333 0.475213 0.407413
16 1 0.334591 0.313843 0.398657
38 1 0.448467 0.336409 0.269101
202 1 0.492913 0.362509 0.402475
268 1 0.649973 0.374854 0.456771
331 2 0.932646 0.357957 0.438973
45 1 0.489479 0.482493 0.30599
80 1 0.61023 0.309505 0.317356
327 2 0.617677 0.446698 0.348204
31 1 0.888101 0.289981 0.317535
338 2 0.0458536 0.467685 0.389404
343 2 0.544855 0.361889 0.0150224
277 1 0.254317 0.0109526 0.172323
321 2 0.0505779 0.0106398 0.0601011
15 1 0.301776 0.497302 0.107529
322 2 0.0653244 0.469141 0.197949
148 1 0.749878 0.0368467 0.0219842
151 1 0.917583 0.013085 0.012343
208 1 0.223186 0.0265133 0.675045
55 1 0.0886213 0.0573674 0.584465
305 2 0.108962 0.1275 0.686706
286 1 0.182026 0.185182 0.599635
315 2 0.226874 0.0719641 0.544936
344 2 0.125489 0.300541 0.574921
301 2 0.324682 0.14053 0.650454
254 1 0.409048 0.232328 0.614435
197 1 0.44931 0.0969692 0.694299
57 1 0.341011 0.020683 0.568557
201 1 0.754637 0.287941 0.70156
39 1 0.56485 0.170407 0.61582
149 1 0.696253 0.251145 0.568639
158 1 0.704122 0.133606 0.692633
125 1 0.66481 0.0163443 0.5824
20 1 0.59487 0.478358 0.547835
332 2 0.654637 0.136077 0.517413
68 1 0.977745 0.0880563 0.700493
251 1 0.85909 0.219987 0.602775
227 1 0.938165 0.0889168 0.553988
256 1 0.835795 0.0127689 0.649667
211 1 0.0307154 0.234186 0.659156
49 1 0.220136 0.370061 0.549518
134 1 0.070938 0.405344 0.653444
150 1 0.178285 0.313242 0.686696
199 1 0.75735 0.250372 0.859076
328 2 0.289214 0.284688 0.608589
297 2 0.347487 0.44728 0.622909
247 1 0.337124 0.356219 0.708112
83 1 0.468728 0.431603 0.640369
224 1 0.225178 0.469306 0.67989
339 2 0.764358 0.497677 0.934742
179 1 0.375902 0.363254 0.539963
337 2 0.62823 0.246657 0.693631
147 1 0.515066 0.294695 0.712853
117 1 0.532631 0.313745 0.557984
167 1 0.632243 0.383909 0.663438
325 2 0.894496 0.402369 0.828354
159 1 0.749147 0.437981 0.578395
124 1 0.952785 0.334255 0.56417
330 2 0.946604 0.404019 0.675057
42 1 0.914532 0.301926 0.727694
347 2 0.837447 0.355294 0.621801
144 1 0.918794 0.26665 0.872141
27 1 0.0712 0.249893 0.94332
153 1 0.108389 0.0645111 0.79215
19 1 0.229473 0.16299 0.750659
164 1 0.22165 0.0549323 0.899735
313 2 0.117527 0.129872 0.912248
118 1 0.093656 0.210965 0.791049
294 2 0.380604 0.00892474 0.919277
100 1 0.367488 0.141761 0.902011
207 1 0.512333 0.0408777 0.880429
108 1 0.551842 0.201269 0.842009
261 1 0.381546 0.211359 0.769555
138 1 0.347514 0.018402 0.794279
41 1 0.583011 0.0331655 0.748445
293 2 0.725948 0.182665 0.969026
93 1 0.609193 0.118492 0.962521
69 1 0.691698 0.11028 0.844125
8 1 0.638937 0.322846 0.812095
74 1 0.839513 0.48336 0.684524
101 1 0.856015 0.159991 0.773197
210 1 0.968166 0.104214 0.863087
356 2 0.816543 0.118516 0.880071
278 1 0.125297 0.49057 0.808954
2 1 0.228671 0.226043 0.890976
142 1 0.0308403 0.358521 0.797077
349 2 0.142074 0.317379 0.8417
81 1 0.121417 0.400664 0.92777
40 1 0.822907 0.385005 0.931174
126 1 0.962271 0.488021 0.570423
23 1 0.274667 0.446225 0.972303
63 1 0.364465 0.313419 0.881524
318 2 0.46587 0.394244 0.760497
26 1 0.243809 0.389515 0.829715
237 1 0.400938 0.466031 0.862806
184 1 0.966991 0.403668 0.936369
154 1 0.661271 0.431755 0.940874
205 1 0.650584 0.289884 0.976154
222 1 0.765085 0.41482 0.797
259 1 0.519917 0.368013 0.880596
281 1 0.047815 0.188602 0.497552
193 1 0.55772 0.476939 0.781242