ITEM: TIMESTEP
0
ITEM: NUMBER OF ATOMS
360
ITEM: BOX BOUNDS pp pp pp
0.0000000000000000e+00 6.6943295008216896e+00
0.0000000000000000e+00 6.6943295008216896e+00
0.0000000000000000e+00 6.6943295008216896e+00
ITEM: ATOMS id type xs ys zs
328 2 0.2374 0.0566582 0.165078
34 1 0.19176 0.160332 0.0358498
108 1 0.0803375 0.11473 0.169754
170 1 0.212849 0.214149 0.193613
202 1 0.0551547 0.0780026 0.00832325
248 1 0.342703 0.142094 0.116381
141 1 0.491047 0.241287 0.165351
321 2 0.26628 0.0491141 0.0310794
17 1 0.392179 0.0118599 0.00822048
122 1 0.479184 0.0988981 0.211595
173 1 0.424237 0.240967 0.0211791
185 1 0.507781 0.1249 0.0642243
211 1 0.610923 0.0261211 0.176506
194 1 0.638188 0.191499 0.122379
18 1 0.6459 0.0699325 0.0346293
204 1 0.730709 0.0981353 0.232709
318 2 0.680512 0.245271 0.237775
92 1 0.990259 0.191478 0.0739168
274 1 0.778071 0.124079 0.0457307
4 1 0.903152 0.101286 0.157952
95 1 0.792495 0.223927 0.179936
69 1 0.0907374 0.303724 0.152944
354 2 0.129887 0.415281 0.0853909
88 1 0.143795 0.475638 0.214324
11 1 0.228362 0.335689 0.103136
83 1 0.355045 0.284329 0.150446
340 2 0.27498 0.375548 0.210948
86 1 0.414259 0.401778 0.0757295
275 1 0.276141 0.496185 0.151989
57 1 0.396163 0.421549 0.22636
144 1 0.55698 0.307401 0.0487754
280 1 0.565761 0.449567 0.0870429
58 1 0.613085 0.330723 0.204205
296 2 0.688271 0.452397 0.156027
150 1 0.712924 0.351214 0.0811719
164 1 0.564384 0.475704 0.233486
186 1 0.694642 0.48534 0.0297869
111 1 0.943598 0.266695 0.192661
172 1 0.854876 0.293721 0.0479293
149 1 0.761438 0.380444 0.23203
334 2 0.989163 0.351008 0.0918162
117 1 0.908298 0.409919 0.166976
338 2 0.816797 0.431201 0.0682155
21 1 0.084912 0.0835431 0.448114
256 1 0.153127 0.105345 0.30381
212 1 0.208357 0.233242 0.371673
203 1 0.0425818 0.220492 0.326017
54 1 0.355673 0.000392287 0.493059
76 1 0.322747 0.175745 0.280559
180 1 0.293988 0.113004 0.411749
128 1 0.320444 0.0198123 0.273615
177 1 0.454018 0.218062 0.319024
114 1 0.428133 0.151521 0.485077
78 1 0.601837 0.158472 0.272663
45 1 0.725122 0.111118 0.385685
239 1 0.514563 0.0287763 0.349864
14 1 0.563136 0.189059 0.454349
339 2 0.933767 0.0973537 0.438765
46 1 0.997167 0.0654885 0.295222
37 1 0.853608 0.0579972 0.334173
75 1 0.884887 0.22423 0.34138
112 1 0.821954 0.163633 0.472035
100 1 0.979563 0.215892 0.476635
254 1 0.834172 0.0119778 0.481673
103 1 0.0130757 0.372615 0.281953
331 2 0.0966751 0.351585 0.408465
282 1 0.119161 0.468943 0.374767
51 1 0.174144 0.349106 0.289037
259 1 0.242824 0.40048 0.430758
233 1 0.408628 0.437434 0.402938
5 1 0.486799 0.338223 0.496754
44 1 0.347589 0.2695 0.45876
262 1 0.326799 0.323102 0.308094
316 2 0.44016 0.324003 0.382505
87 1 0.286981 0.474447 0.310723
292 2 0.504592 0.350795 0.267882
225 1 0.743555 0.281027 0.368403
243 1 0.598309 0.475189 0.3891
326 2 0.650226 0.40654 0.301814
36 1 0.657717 0.369153 0.477247
162 1 0.562918 0.310676 0.363487
236 1 0.773037 0.420373 0.389333
65 1 0.921626 0.344665 0.404035
342 2 0.99245 0.445711 0.379794
35 1 0.923047 0.480741 0.48061
348 2 0.877213 0.343856 0.282628
82 1 0.883649 0.477419 0.304244
191 1 0.0724759 0.172094 0.590385
290 2 0.161465 0.208564 0.656701
124 1 0.155685 0.0626202 0.663287
96 1 0.209981 0.0372241 0.515739
297 2 0.208183 0.184756 0.521144
193 1 0.281092 0.135208 0.622172
189 1 0.420127 0.0344602 0.622588
351 2 0.326747 0.228395 0.689566
123 1 0.401651 0.140588 0.740978
187 1 0.563684 0.140946 0.631799
252 1 0.530384 0.0232141 0.746001
93 1 0.695736 0.229982 0.508119
215 1 0.535859 0.0326315 0.509131
109 1 0.708062 0.232761 0.668481
160 1 0.687612 0.0739025 0.550234
138 1 0.971019 0.101909 0.709701
31 1 0.814064 0.0777332 0.628048
216 1 0.855719 0.228195 0.610103
1 1 0.972563 0.241453 0.697501
60 1 0.945629 0.0737712 0.556333
229 1 0.106518 0.322449 0.664636
198 1 0.0600567 0.438708 0.539418
163 1 0.226713 0.276912 0.738018
308 2 0.106985 0.456596 0.667813
251 1 0.201316 0.432396 0.588846
50 1 0.14284 0.286808 0.500531
205 1 0.261253 0.278766 0.594417
279 1 0.427367 0.267102 0.61043
219 1 0.340255 0.361565 0.702831
349 2 0.461003 0.387088 0.615477
29 1 0.474967 0.443212 0.717716
47 1 0.336922 0.39722 0.535177
167 1 0.568575 0.296062 0.626436
104 1 0.571913 0.450694 0.568687
158 1 0.691699 0.375714 0.629821
350 2 0.748859 0.470094 0.684055
154 1 0.730799 0.482017 0.531311
131 1 0.984972 0.419949 0.682014
125 1 0.966695 0.335974 0.5579
330 2 0.861381 0.340134 0.688547
176 1 0.849427 0.463127 0.625396
3 1 0.825878 0.346768 0.522914
257 1 0.0953642 0.175804 0.763599
32 1 0.1496 0.101914 0.894285
68 1 0.0335538 0.216172 0.931895
353 2 0.094775 0.0528573 0.78445
25 1 0.390334 0.00708748 0.821896
192 1 0.260195 0.132222 0.783048
97 1 0.293847 0.108836 0.92086
133 1 0.348735 0.243109 0.842905
10 1 0.436014 0.117945 0.895701
314 2 0.27316 0.224982 0.976347
255 1 0.704687 0.0972029 0.753343
80 1 0.656099 0.234765 0.810101
357 2 0.551484 0.162434 0.76866
89 1 0.576583 0.097885 0.873587
323 2 0.526048 0.0304366 0.963322
142 1 0.639768 0.198434 0.973132
42 1 0.84484 0.0146271 0.770389
237 1 0.982863 0.079247 0.867607
288 1 0.753129 0.123577 0.907082
148 1 0.843682 0.196848 0.772868
300 2 0.982331 0.209089 0.809988
99 1 0.887522 0.181663 0.931246
343 2 0.857721 0.0803568 0.878691
62 1 0.909011 0.0173187 0.992858
206 1 0.130381 0.329312 0.977908
283 1 0.111134 0.461001 0.921166
118 1 0.0723644 0.334133 0.831502
174 1 0.207266 0.421234 0.75287
178 1 0.201904 0.257165 0.877631
289 2 0.217245 0.382958 0.873397
22 1 0.310472 0.364688 0.969784
293 2 0.463931 0.345202 0.968652
245 1 0.337429 0.432124 0.850548
224 1 0.473995 0.284027 0.755701
153 1 0.593739 0.385325 0.761013
67 1 0.521646 0.251118 0.892375
23 1 0.509107 0.448386 0.876113
220 1 0.621435 0.388387 0.934881
33 1 0.687347 0.490658 0.824336
312 2 0.932896 0.488762 0.975639
199 1 0.967778 0.450396 0.848276
197 1 0.755851 0.286768 0.928709
269 1 0.759031 0.341965 0.774239
110 1 0.996224 0.382396 0.977621
260 1 0.838797 0.411584 0.950997
227 1 0.910192 0.322175 0.840789
242 1 0.83574 0.464182 0.780376
265 1 0.109206 0.697485 0.0593701
9 1 0.135818 0.551669 0.0457941
272 1 0.129182 0.628911 0.212334
317 2 0.211002 0.617111 0.109289
218 1 0.445088 0.555836 0.119002
134 1 0.327399 0.643874 0.107327
24 1 0.473052 0.70128 0.083964
273 1 0.420972 0.690617 0.230929
301 2 0.393811 0.630212 0.00965831
315 2 0.535927 0.645333 0.202188
171 1 0.633563 0.561749 0.14399
20 1 0.722971 0.663074 0.239485
284 1 0.630962 0.717411 0.134724
136 1 0.737391 0.634562 0.0205938
115 1 0.562338 0.596396 0.0206635
145 1 0.988099 0.653842 0.132557
319 2 0.838776 0.670512 0.138169
106 1 0.866901 0.577819 0.0469005
113 1 0.942335 0.746813 0.0179171
130 1 0.778902 0.529659 0.152609
249 1 0.988634 0.504778 0.0847814
346 2 0.894931 0.529655 0.164309
213 1 0.166492 0.993151 0.0650377
295 2 0.108924 0.75293 0.190848
210 1 0.222536 0.754193 0.144198
120 1 0.115642 0.854733 0.116189
71 1 0.151679 0.972351 0.220131
181 1 0.0140717 0.98437 0.122883
287 1 0.0214537 0.876004 0.24515
313 2 0.170821 0.890157 0.00864781
299 2 0.311946 0.756685 0.227621
116 1 0.291136 0.947244 0.123472
238 1 0.371708 0.805846 0.137693
332 2 0.395365 0.900877 0.0666503
234 1 0.439509 0.958004 0.202839
310 2 0.449376 0.819833 0.248377
13 1 0.277993 0.8369 0.0256992
16 1 0.524403 0.968834 0.0661234
226 1 0.518386 0.835728 0.144335
285 1 0.703012 0.81269 0.246623
84 1 0.655126 0.871371 0.113294
307 2 0.998944 0.799798 0.14177
39 1 0.774987 0.772574 0.0841255
61 1 0.774661 0.992073 0.129229
26 1 0.874558 0.945135 0.239751
266 1 0.907467 0.892835 0.097455
166 1 0.885863 0.780772 0.203881
356 2 0.795921 0.867838 0.17813
231 1 0.785436 0.907561 0.00700842
320 2 0.0460959 0.554373 0.445687
127 1 0.0243097 0.546159 0.283259
286 1 0.132731 0.630805 0.38605
161 1 0.0212676 0.71007 0.277386
341 2 0.022565 0.724176 0.418915
337 2 0.223921 0.537889 0.405156
246 1 0.260937 0.629847 0.258811
322 2 0.25612 0.671172 0.48429
235 1 0.338518 0.569682 0.448149
77 1 0.308387 0.715906 0.379681
221 1 0.48927 0.565865 0.451408
152 1 0.43009 0.551365 0.298848
333 2 0.440499 0.663072 0.361186
66 1 0.707098 0.519054 0.284737
94 1 0.582036 0.611404 0.312603
325 2 0.670784 0.698424 0.345447
30 1 0.558788 0.709911 0.43261
72 1 0.663132 0.606268 0.440935
263 1 0.572056 0.749016 0.266919
190 1 0.738913 0.729159 0.486068
59 1 0.877776 0.615515 0.250371
15 1 0.811829 0.589502 0.391901
223 1 0.801842 0.740408 0.343582
244 1 0.954139 0.617917 0.3973
121 1 0.169552 0.764608 0.451194
311 2 0.115206 0.955924 0.49561
267 1 0.160598 0.766284 0.310413
228 1 0.0931283 0.883556 0.392173
302 2 0.0944905 0.990155 0.330825
155 1 0.222251 0.965301 0.379436
56 1 0.282347 0.870389 0.257291
140 1 0.389135 0.931313 0.352793
98 1 0.284436 0.855552 0.446656
43 1 0.432572 0.782805 0.365402
298 2 0.402212 0.849161 0.457182
222 1 0.721246 0.965431 0.291689
48 1 0.56906 0.901037 0.278162
179 1 0.675249 0.969904 0.429728
209 1 0.651962 0.831302 0.392841
250 1 0.519937 0.895088 0.43419
6 1 0.817575 0.885825 0.374566
132 1 0.933339 0.796718 0.3634
200 1 0.961849 0.953292 0.413459
201 1 0.0952922 0.694436 0.563122
208 1 0.191399 0.566042 0.665167
90 1 0.00414992 0.563376 0.576893
324 2 0.0860465 0.635376 0.703102
143 1 0.174006 0.731669 0.699745
27 1 0.16086 0.563308 0.511837
168 1 0.306378 0.655393 0.735723
232 1 0.320959 0.620478 0.593056
264 1 0.334759 0.50304 0.686844
278 1 0.456476 0.602401 0.684771
345 2 0.441599 0.635185 0.56794
306 2 0.292977 0.510816 0.552428
182 1 0.431924 0.503718 0.575552
241 1 0.385872 0.719073 0.507512
38 1 0.58533 0.609112 0.568798
327 2 0.742964 0.612416 0.55041
159 1 0.658836 0.732504 0.623891
270 1 0.608598 0.524307 0.696243
336 2 0.720992 0.720771 0.727718
253 1 0.600759 0.670508 0.740611
169 1 0.751256 0.59064 0.700582
276 1 0.982166 0.711442 0.714961
63 1 0.862614 0.594723 0.562176
64 1 0.81748 0.71912 0.623338
261 1 0.930126 0.569691 0.71658
79 1 0.924804 0.719402 0.519567
165 1 0.0672444 0.842052 0.674414
107 1 0.178388 0.890483 0.572649
352 2 0.150227 0.936777 0.696116
126 1 0.015023 0.842584 0.527747
214 1 0.0503313 0.984672 0.602125
81 1 0.25952 0.767906 0.579908
147 1 0.366275 0.885424 0.584025
358 2 0.487574 0.934885 0.582219
271 1 0.405862 0.751814 0.656087
101 1 0.424811 0.885373 0.719553
151 1 0.2734 0.980441 0.648667
91 1 0.279358 0.842971 0.708532
129 1 0.530024 0.803148 0.557162
195 1 0.610822 0.967595 0.629186
207 1 0.56972 0.829168 0.700849
135 1 0.676608 0.863767 0.547406
304 2 0.904055 0.815382 0.632004
258 1 0.756864 0.84759 0.698924
247 1 0.896246 0.932142 0.648899
12 1 0.84431 0.863523 0.530755
360 2 0.752241 0.952806 0.626938
281 1 0.00900841 0.599241 0.966808
303 2 0.143805 0.635893 0.956538
268 1 0.115155 0.687464 0.836072
188 1 0.213846 0.565874 0.837933
344 2 0.248387 0.712214 0.843469
28 1 0.0736016 0.52777 0.766755
277 1 0.266789 0.52174 0.979575
137 1 0.433025 0.517079 0.97316
359 2 0.435537 0.534299 0.795116
139 1 0.25454 0.68389 0.973297
183 1 0.377241 0.630853 0.875921
347 2 0.465722 0.692563 0.766066
230 1 0.522985 0.602492 0.862876
309 2 0.501627 0.701075 0.955461
119 1 0.711648 0.630065 0.854285
355 2 0.614081 0.532476 0.923858
305 2 0.761831 0.523386 0.931365
7 1 0.954784 0.709468 0.866797
19 1 0.825739 0.721464 0.785093
40 1 0.810681 0.740234 0.92966
294 2 0.999154 0.600525 0.842395
55 1 0.870924 0.587302 0.889108
217 1 0.202729 0.97186 0.79542
329 2 0.00131978 0.931123 0.994811
102 1 0.0048261 0.955173 0.765625
2 1 0.226223 0.836675 0.871718
240 1 0.0914981 0.842951 0.814542
146 1 0.0748273 0.82386 0.97176
105 1 0.0913767 0.964404 0.900688
8 1 0.267959 0.961631 0.936476
335 2 0.316597 0.907189 0.82273
156 1 0.38822 0.75019 0.983118
74 1 0.410822 0.894697 0.908122
157 1 0.353298 0.783194 0.820924
175 1 0.680598 0.800399 0.827713
291 2 0.62476 0.902033 0.987428
184 1 0.624709 0.751324 0.964814
53 1 0.677584 0.954788 0.770999
49 1 0.554258 0.921925 0.858907
41 1 0.51348 0.76564 0.850459
52 1 0.679095 0.978874 0.913933
70 1 0.507527 0.838141 0.997719
85 1 0.798643 0.89247 0.854787
196 1 0.90994 0.847831 0.761053
73 1 0.935039 0.850556 0.91753
ITEM: TIMESTEP
50000
ITEM: NUMBER OF ATOMS
360
ITEM: BOX BOUNDS pp pp pp
0.0000000000000000e+00 6.6943295008216896e+00
0.0000000000000000e+00 6.6943295008216896e+00
0.0000000000000000e+00 6.6943295008216896e+00
ITEM: ATOMS id type xs ys zs
172 1 0.0827429 0.162934 0.166046
206 1 0.152848 0.115222 0.0430238
202 1 0.258499 0.127326 0.169688
145 1 0.131182 0.375556 0.0511498
331 2 0.109663 0.230435 0.00271982
246 1 0.444735 0.471564 0.310102
142 1 0.695774 0.374862 0.31943
314 2 0.402073 0.136023 0.206875
122 1 0.311001 0.133816 0.0229415
211 1 0.37134 0.249358 0.0976993
46 1 0.386901 0.0200794 0.128425
154 1 0.878169 0.402947 0.426275
225 1 0.454757 0.135049 0.0544391
45 1 0.287349 0.381644 0.31689
234 1 0.678124 0.187306 0.0896206
82 1 0.465488 0.262521 0.215873
194 1 0.852139 0.297534 0.303628
315 2 0.405552 0.351619 0.2761
171 1 0.554853 0.385931 0.241838
117 1 0.841444 0.12358 0.0531682
226 1 0.78168 0.0667866 0.182495
185 1 0.930618 0.135687 0.171069
51 1 0.799406 0.234783 0.162904
95 1 0.75002 0.190809 0.302604
10 1 0.562011 0.492493 0.41436
89 1 0.195158 0.248464 0.11119
103 1 0.0289204 0.300497 0.110041
170 1 0.200632 0.43906 0.17838
342 2 0.175135 0.210377 0.44708
296 2 0.0904984 0.40091 0.171682
313 2 0.260625 0.0427611 0.0814476
269 1 0.789751 0.269697 0.435514
330 2 0.292048 0.346621 0.12718
21 1 0.426741 0.380724 0.00722555
137 1 0.351764 0.450284 0.185364
78 1 0.543764 0.297376 0.0800371
359 2 0.460046 0.37816 0.140433
162 1 0.651201 0.289997 0.192542
141 1 0.71924 0.356805 0.055043
203 1 0.979276 0.236614 0.257882
260 1 0.870846 0.38068 0.110195
316 2 0.782703 0.464505 0.0526495
348 2 0.916303 0.268061 0.059389
239 1 0.635031 0.28312 0.449228
130 1 0.974013 0.385212 0.239533
277 1 0.987395 0.452189 0.0186577
72 1 0.60058 0.452389 0.115872
14 1 0.174449 0.0887466 0.436625
181 1 0.148375 0.0602491 0.284591
200 1 0.08117 0.181271 0.360494
279 1 0.232555 0.192398 0.321573
230 1 0.295906 0.459655 0.0476299
243 1 0.837192 0.439725 0.251638
308 2 0.770676 0.358199 0.182501
292 2 0.770729 0.245629 0.0175493
204 1 0.575814 0.218369 0.31222
263 1 0.349519 0.0805399 0.313136
346 2 0.488005 0.128653 0.399725
96 1 0.319823 0.102094 0.469663
98 1 0.394636 0.214242 0.34327
284 1 0.505217 0.0504638 0.302863
114 1 0.630693 0.13082 0.425566
31 1 0.54357 0.12525 0.184248
66 1 0.656345 0.0916755 0.266725
92 1 0.726596 0.03267 0.0397179
236 1 0.0118962 0.340616 0.383231
125 1 0.0242364 0.0238015 0.376806
61 1 0.888923 0.0962839 0.330441
352 2 0.0074016 0.105384 0.280081
75 1 0.798867 0.111006 0.467038
3 1 0.943357 0.199288 0.42136
111 1 0.117304 0.305261 0.240242
15 1 0.107007 0.440758 0.305394
118 1 0.710291 0.430348 0.47571
180 1 0.16644 0.327574 0.391322
254 1 0.102846 0.479806 0.471581
329 2 0.0294175 0.0560057 0.112047
76 1 0.303919 0.268865 0.230341
303 2 0.252711 0.493094 0.27499
235 1 0.387261 0.401937 0.435198
18 1 0.514121 0.344737 0.383416
350 2 0.987914 0.466518 0.390588
221 1 0.72656 0.498616 0.179202
256 1 0.303814 0.246839 0.48846
37 1 0.761752 0.0110911 0.363699
321 2 0.663597 0.00899527 0.157802
273 1 0.572065 0.0356548 0.0447152
272 1 0.239577 0.488762 0.402803
65 1 0.99292 0.156107 0.00187821
73 1 0.147958 0.000560559 0.145529
178 1 0.12795 0.211843 0.673433
212 1 0.0833813 0.042577 0.594849
311 2 0.162516 0.211279 0.805826
124 1 0.0801905 0.0811163 0.742462
147 1 0.208494 0.161753 0.563604
100 1 0.485094 0.0668855 0.523673
93 1 0.35651 0.163678 0.607293
290 2 0.354847 0.214516 0.72
286 1 0.938638 0.303357 0.521141
77 1 0.219297 0.0114283 0.623143
109 1 0.583773 0.0833922 0.659086
222 1 0.67672 0.0188633 0.535354
358 2 0.670458 0.168219 0.669093
158 1 0.730664 0.22831 0.572901
338 2 0.519351 0.171598 0.703539
29 1 0.568146 0.22059 0.589293
153 1 0.791437 0.0982917 0.62683
148 1 0.987436 0.15009 0.644152
38 1 0.930717 0.0521339 0.50167
297 2 0.894149 0.183027 0.54612
244 1 0.866338 0.241962 0.6528
67 1 0.163874 0.337093 0.745133
229 1 0.119641 0.320648 0.553102
174 1 0.0428557 0.377832 0.834033
259 1 0.249275 0.396735 0.513737
265 1 0.0703186 0.471791 0.664435
310 2 0.373792 0.343306 0.561189
276 1 0.225081 0.435526 0.657398
59 1 0.857 0.357444 0.950506
192 1 0.291687 0.297805 0.639283
193 1 0.448589 0.274144 0.656792
205 1 0.374621 0.427053 0.730316
189 1 0.636409 0.365625 0.595542
351 2 0.497631 0.364033 0.746851
104 1 0.491249 0.361599 0.540081
167 1 0.508352 0.464162 0.665081
47 1 0.368179 0.471206 0.588312
23 1 0.755285 0.374861 0.728228
355 2 0.644516 0.293167 0.993449
191 1 0.0146542 0.327431 0.680478
33 1 0.913169 0.433504 0.696877
35 1 0.968757 0.443395 0.540993
36 1 0.812006 0.372863 0.584833
99 1 0.111418 0.12835 0.900491
34 1 0.0209744 0.210534 0.80314
289 2 0.218759 0.173682 0.950513
32 1 0.23901 0.0531571 0.894735
318 2 0.960048 0.114129 0.878193
54 1 0.419061 0.106477 0.726717
238 1 0.544703 0.463979 0.970983
216 1 0.946355 0.0121124 0.66136
133 1 0.253414 0.123856 0.73147
22 1 0.366594 0.146555 0.861996
184 1 0.473996 0.226571 0.807512
97 1 0.444736 0.241163 0.960934
248 1 0.503104 0.0868413 0.894981
138 1 0.748855 0.0398741 0.800974
25 1 0.61363 0.138189 0.799081
123 1 0.583182 0.190777 0.974008
274 1 0.756801 0.208509 0.764442
255 1 0.852622 0.045452 0.926647
227 1 0.894268 0.113294 0.760452
150 1 0.715715 0.135335 0.931795
309 2 0.624951 0.0114923 0.90944
249 1 -0.000392383 0.303294 0.953023
283 1 0.137337 0.451769 0.927883
163 1 0.152985 0.288739 0.901336
11 1 0.275105 0.407013 0.863005
69 1 0.28556 0.299543 0.975782
245 1 0.416432 0.357531 0.853916
110 1 0.285893 0.262042 0.813481
257 1 0.882951 0.308055 0.796323
144 1 0.719459 0.292549 0.882418
224 1 0.600726 0.285448 0.722359
106 1 0.702873 0.46107 0.904199
334 2 0.645033 0.377402 0.799384
68 1 0.87423 0.217721 0.909935
5 1 0.525863 0.454293 0.818601
17 1 0.575276 0.32319 0.891006
28 1 0.918839 0.468755 0.860178
312 2 0.808269 0.403844 0.84361
300 2 0.706441 0.0196881 0.678962
50 1 0.0613294 0.163942 0.51169
347 2 0.572604 0.479518 0.554042
52 1 0.021001 0.0118463 0.972757
253 1 0.708585 0.490897 0.61062
298 2 0.244467 0.0116129 0.50384
177 1 0.444823 0.223162 0.499383
139 1 0.110238 0.662045 0.148232
186 1 0.15821 0.523665 0.063979
2 1 0.219043 0.663775 0.0406855
337 2 0.107639 0.782462 0.158327
9 1 0.0344268 0.760978 0.0610092
242 1 0.994123 0.599881 0.0368968
218 1 0.460952 0.612697 0.23159
157 1 0.285619 0.583005 0.149342
6 1 0.99886 0.58041 0.461431
116 1 0.4252 0.660523 0.0990651
208 1 0.255844 0.728932 0.203514
88 1 0.0377568 0.522542 0.168571
57 1 0.58752 0.636085 0.115785
58 1 0.755812 0.620415 0.110725
360 2 0.698081 0.606542 0.221588
4 1 0.0108241 0.986537 0.225242
223 1 0.884832 0.526145 0.14891
161 1 0.96322 0.659332 0.175042
7 1 0.861644 0.689205 0.0396428
228 1 0.138252 0.954847 0.465799
20 1 0.821551 0.617506 0.256289
108 1 0.0557394 0.900899 0.0917932
120 1 0.197811 0.804119 0.07099
169 1 0.664526 0.572894 0.499473
275 1 0.433181 0.519938 0.0674244
71 1 0.371326 0.809464 0.14351
354 2 0.951967 0.518836 0.265026
155 1 0.283843 0.92847 0.139233
48 1 0.38954 0.9366 0.255093
299 2 0.552739 0.699483 0.247284
39 1 0.736164 0.76292 0.0641828
41 1 0.545579 0.773215 0.11809
233 1 0.689448 0.7329 0.208331
136 1 0.537863 0.942033 0.170789
105 1 0.192993 0.954902 -0.00224783
320 2 0.11993 0.945171 0.345814
26 1 0.827814 0.787753 0.468148
285 1 0.710154 0.887323 0.169332
291 2 0.803443 0.964864 0.117993
146 1 0.866105 0.943011 0.239056
12 1 0.837125 0.766132 0.230142
113 1 0.897236 0.833243 0.0878311
301 2 0.32706 0.585169 0.0302671
140 1 0.434144 0.973746 0.421207
183 1 0.174062 0.579131 0.262123
127 1 0.0217342 0.60485 0.301034
282 1 0.142715 0.614017 0.409666
134 1 0.279155 0.703355 0.381655
132 1 0.0362798 0.733566 0.415512
173 1 0.328599 0.58507 0.308661
328 2 0.366794 0.716206 0.247545
349 2 0.432306 0.523294 0.421606
237 1 0.449139 0.670938 0.372701
56 1 0.600769 0.524423 0.259719
250 1 0.637047 0.64938 0.347594
325 2 0.549035 0.622699 0.431689
190 1 0.732171 0.522626 0.33668
356 2 0.903663 0.671046 0.459329
302 2 0.900926 0.833566 0.312523
340 2 0.950689 0.834578 0.445186
341 2 0.748606 0.737519 0.323468
166 1 0.911257 0.716669 0.350396
131 1 0.784664 0.661811 0.403005
209 1 0.877358 0.543195 0.36867
268 1 0.120324 0.723353 0.278472
83 1 0.349131 0.60887 0.459517
128 1 0.997897 0.816659 0.219517
267 1 0.0219335 0.88026 0.351294
287 1 0.178996 0.838321 0.376871
271 1 0.14304 0.87662 0.241124
43 1 0.274999 0.960412 0.371478
24 1 0.286189 0.845021 0.282394
160 1 0.638008 0.934645 0.290595
210 1 0.384409 0.828989 0.386013
164 1 0.472569 0.790869 0.251047
339 2 0.49994 0.896322 0.333346
195 1 0.671231 0.870986 0.472499
94 1 0.668004 0.726147 0.478051
247 1 0.517041 0.837592 0.459407
112 1 0.609604 0.796343 0.342321
62 1 0.769377 0.861174 0.342775
1 1 0.894385 0.943049 0.393312
182 1 0.577087 0.999627 0.420144
119 1 0.458825 0.857931 0.0433603
175 1 0.628587 0.874243 0.0352548
323 2 0.495327 0.501957 0.179733
288 1 0.92259 0.992885 0.0695487
322 2 0.257499 0.993228 0.249399
149 1 0.664604 0.550197 0.0223599
196 1 0.0965905 0.632313 0.580415
294 2 0.0531959 0.64015 0.694554
262 1 0.223252 0.560502 0.540977
27 1 0.202319 0.68244 0.710368
293 2 0.162705 0.55811 0.650693
152 1 0.218531 0.719361 0.528817
264 1 0.331214 0.632046 0.626509
80 1 0.453085 0.698965 0.679629
306 2 0.305179 0.744178 0.698663
86 1 0.652334 0.522414 0.755448
278 1 0.470111 0.573098 0.537087
40 1 0.572181 0.592748 0.633302
179 1 0.532296 0.712858 0.536946
304 2 0.674976 0.674414 0.595103
335 2 0.882684 0.771136 0.948016
91 1 0.595703 0.735362 0.692615
307 2 0.103796 0.704086 0.979283
198 1 0.859061 0.70426 0.692829
176 1 0.95768 0.590182 0.611691
135 1 0.809018 0.65274 0.566946
326 2 0.83133 0.538588 0.636668
79 1 0.952512 0.736179 0.549196
102 1 0.967083 0.879378 0.958014
81 1 0.0989629 0.815391 0.528607
13 1 0.1063 0.830806 0.940396
343 2 0.142604 0.924863 0.592524
101 1 0.213928 0.827665 0.643133
217 1 0.0729883 0.924434 0.711234
258 1 0.0604418 0.766267 0.686851
30 1 0.377994 0.751112 0.535438
53 1 0.696084 0.905763 0.887969
252 1 0.492134 0.980307 0.662717
85 1 0.357707 0.861181 0.66978
280 1 0.501826 0.612776 0.969455
129 1 0.475778 0.876263 0.765118
295 2 0.412836 0.874929 0.509052
333 2 0.562535 0.953362 0.532355
64 1 0.763492 0.820426 0.612722
327 2 0.61807 0.803005 0.57952
215 1 0.494137 0.831518 0.616066
261 1 0.63393 0.903908 0.656105
197 1 0.95164 0.973878 0.819204
55 1 0.72178 0.805301 0.765519
60 1 0.812867 0.951521 0.548639
151 1 0.931124 0.842475 0.687379
126 1 0.994347 0.927462 0.549423
214 1 0.860853 0.828102 0.835316
63 1 0.126968 0.539817 0.776147
90 1 0.268589 0.574262 0.928912
188 1 0.11839 0.583695 0.934637
201 1 0.0930693 0.684272 0.818435
305 2 0.755533 0.652859 0.978141
231 1 0.806955 0.920504 0.994692
232 1 0.231073 0.749814 0.917912
270 1 0.346289 0.665908 0.811462
324 2 0.20432 0.628999 0.832939
251 1 0.407175 0.530885 0.89269
49 1 0.364153 0.712295 0.960432
219 1 0.273422 0.54276 0.768173
42 1 0.722592 0.649115 0.704907
44 1 0.448507 0.574421 0.752028
220 1 0.564471 0.636531 0.808549
199 1 0.832136 0.518583 0.513417
156 1 0.722291 0.608708 0.861811
336 2 0.650335 0.719496 0.833103
213 1 0.322343 0.861833 0.979298
19 1 0.534529 0.772546 0.861168
115 1 0.831442 0.542918 0.977151
187 1 0.990193 0.708543 0.919863
207 1 0.805468 0.921154 0.713761
121 1 0.855773 0.678388 0.862214
240 1 0.983864 0.573672 0.778525
319 2 0.962292 0.580337 0.908463
344 2 0.960676 0.70118 0.77919
84 1 0.806973 0.527699 0.762005
107 1 0.112056 0.978086 0.863313
168 1 0.00683244 0.825522 0.814727
143 1 0.168348 0.815775 0.792437
165 1 0.221485 0.953858 0.760355
74 1 0.362225 0.978204 0.815182
332 2 0.230702 0.909168 0.870456
159 1 0.334055 0.818587 0.818359
8 1 0.540324 0.911772 0.920821
317 2 0.415629 0.886658 0.894632
87 1 0.277131 0.874917 0.516971
357 2 0.588856 0.853204 0.768743
16 1 0.589926 0.988155 0.777311
266 1 0.748026 0.781876 0.921938
353 2 0.837478 0.941999 0.846839
241 1 0.357603 0.990668 0.562263
345 2 0.329069 1.00355 0.695616
281 1 0.630135 0.694867 0.978992
70 1 0.394673 0.993621 0.966132
ITEM: TIMESTEP
100000
ITEM: NUMBER OF ATOMS
360
ITEM: BOX BOUNDS pp pp pp
0.0000000000000000e+00 6.6943295008216896e+00
0.0000000000000000e+00 6.6943295008216896e+00
0.0000000000000000e+00 6.6943295008216896e+00
ITEM: ATOMS id type xs ys zs
180 1 0.250617 0.125576 0.0380877
35 1 0.275112 0.483116 0.492592
207 1 0.0629458 0.0783701 0.0391596
267 1 0.204362 0.110106 0.176123
52 1 0.0439417 0.0515619 0.194227
313 2 0.311285 0.255559 0.0489562
14 1 0.513383 0.225782 0.106471
160 1 0.352699 0.0495438 0.219132
263 1 0.371594 0.15922 0.105653
31 1 0.521382 0.0709142 0.116885
87 1 0.29695 0.113039 0.497311
71 1 0.40341 0.0245958 0.027455
234 1 0.618017 0.164497 0.188645
61 1 0.676704 0.0722555 0.0940922
12 1 0.78624 0.179682 0.141078
97 1 0.809948 0.358365 0.0270602
57 1 0.596924 0.486681 0.47765
66 1 0.606855 0.0159145 0.23795
25 1 0.900346 0.204159 0.275294
182 1 0.825132 0.0371816 0.0831346
286 1 0.902668 0.0528949 0.213754
84 1 0.958413 0.151774 0.122055
348 2 0.931526 0.280211 0.0896184
260 1 0.0844305 0.216402 0.161949
88 1 0.227671 0.284837 0.134853
99 1 0.13061 0.26829 0.0309069
256 1 0.130797 0.431329 0.0698818
111 1 0.158946 0.457665 0.203448
296 2 0.113237 0.333426 0.150938
41 1 0.802694 0.411823 0.308873
48 1 0.302712 -0.00252199 0.365607
29 1 0.385189 0.321582 0.126505
355 2 0.25227 0.414729 0.131052
315 2 0.453915 0.413223 0.181319
218 1 0.343262 0.465301 0.204111
211 1 0.421306 0.488099 0.0606976
122 1 0.530057 0.373518 0.0551258
59 1 0.660968 0.31116 0.107835
161 1 0.749012 0.442538 0.162159
18 1 0.56624 0.347891 0.207626
123 1 0.856314 0.188362 0.00716989
323 2 0.930132 0.411182 0.040297
115 1 0.00233119 0.37275 0.149695
145 1 0.280516 0.374548 0.0164559
226 1 0.858467 0.330608 0.184258
219 1 0.187179 0.452925 0.364609
77 1 0.194379 0.191519 0.294515
73 1 0.171984 0.0826077 0.424892
1 1 0.0352111 0.143585 0.334649
216 1 0.0620556 0.200388 0.485397
316 2 0.229039 0.199746 0.429098
356 2 0.802045 0.20753 0.39217
314 2 0.244945 0.0717274 0.289274
43 1 0.331112 0.204736 0.247401
181 1 0.392617 0.124087 0.376739
311 2 0.459189 0.229438 0.374184
241 1 0.485147 0.173787 0.245675
250 1 0.5456 0.0772893 0.390214
340 2 0.638383 0.137366 0.330368
194 1 0.681323 0.147726 0.452702
104 1 0.589212 0.251404 0.350217
242 1 0.991677 0.4875 0.24431
319 2 0.908677 0.0852904 0.335875
203 1 0.765689 0.124682 0.303565
287 1 0.839111 0.0933481 0.446947
103 1 0.926472 0.22026 0.422059
258 1 0.978611 0.0546721 0.439453
147 1 0.0362857 0.439648 0.382663
171 1 0.101984 0.306664 0.287968
300 2 0.0280648 0.304033 0.390896
82 1 0.156898 0.315572 0.430586
269 1 0.686451 0.0131963 0.373599
204 1 0.447169 0.318948 0.284951
89 1 0.259949 0.33357 0.270971
200 1 0.335015 0.257344 0.381949
229 1 0.352687 0.422377 0.359915
221 1 0.649837 0.417674 0.33151
142 1 0.711248 0.278021 0.256924
347 2 0.623782 0.327702 0.468622
2 1 0.566414 0.483361 0.150341
279 1 0.509742 0.373089 0.415178
118 1 0.730097 0.301723 0.419006
166 1 0.767099 0.484989 0.438863
339 2 0.111924 0.0433075 0.303231
3 1 0.947745 0.338415 0.304251
169 1 0.860347 0.357247 0.464698
193 1 0.431399 0.0351704 0.484812
39 1 0.496204 0.469872 0.288354
331 2 0.157885 0.0152838 0.0970822
212 1 0.371624 0.351943 0.501606
124 1 0.189036 0.128864 0.601999
222 1 0.036713 0.0666435 0.685377
174 1 0.144937 0.134398 0.754249
230 1 0.0386019 0.210908 0.639428
345 2 0.263157 0.0859439 0.726634
11 1 0.42163 0.293683 0.968719
294 2 0.013446 0.139106 0.788677
228 1 0.30387 0.203867 0.688159
133 1 0.329902 0.0271564 0.637918
264 1 0.4266 0.131193 0.605437
148 1 0.819361 0.474165 0.786346
141 1 0.754881 0.102681 0.93903
72 1 0.655657 0.427822 0.962956
78 1 0.685962 0.21824 1.00071
239 1 0.588812 0.0868746 0.567698
343 2 0.7014 0.121604 0.572146
138 1 0.734883 0.153379 0.693414
342 2 0.540618 0.205961 0.614605
62 1 0.670019 0.0146587 0.675088
96 1 0.656298 0.232737 0.592031
158 1 0.819914 0.061814 0.609183
33 1 0.898493 0.146639 0.7122
21 1 0.516075 0.478471 0.683695
191 1 0.931518 0.152897 0.562102
139 1 0.900142 0.449903 0.926725
236 1 0.258467 0.260282 0.531349
63 1 0.173064 0.264051 0.699524
6 1 0.145865 0.356006 0.57494
252 1 0.294241 0.352787 0.659898
93 1 0.570913 0.237126 0.742901
205 1 0.419075 0.283846 0.621906
292 2 0.388526 0.22053 0.503931
86 1 0.563949 0.290866 0.939404
333 2 0.782193 0.435093 0.673806
224 1 0.653423 0.362162 0.679271
244 1 0.533655 0.383275 0.563868
325 2 0.52311 0.344442 0.696031
303 2 0.635367 0.484203 0.601628
50 1 0.806639 0.221904 0.523106
154 1 0.0316896 0.345498 0.717808
95 1 0.71144 0.391432 0.54414
358 2 0.791581 0.394821 0.89341
45 1 0.956355 0.502062 0.515573
350 2 0.92309 0.271318 0.613038
36 1 0.798113 0.300378 0.718171
341 2 0.905798 0.372441 0.756338
322 2 0.949009 0.107566 0.973378
249 1 0.103959 0.11965 0.899743
163 1 0.25131 0.118327 0.844828
98 1 0.26177 0.256183 0.929399
227 1 0.953496 0.297591 0.849771
107 1 0.379342 0.0939942 0.775809
338 2 0.434369 0.200392 0.717836
162 1 0.373063 0.147854 0.947917
37 1 0.52299 0.0930045 0.709275
284 1 0.490741 0.166648 0.856398
16 1 0.455347 0.015368 0.883414
53 1 0.620156 0.0315252 0.826808
251 1 0.65618 0.173763 0.857383
255 1 0.911132 0.15371 0.866922
69 1 0.564772 0.121136 0.974272
274 1 0.774944 0.0391644 0.787563
144 1 0.803616 0.260777 0.883472
64 1 0.880366 0.0198818 0.934841
257 1 0.0727691 0.481032 0.645732
68 1 -0.000811552 0.22387 0.977939
324 2 0.162072 0.40059 0.688025
170 1 0.0367312 0.369569 0.957869
334 2 0.899761 0.311283 0.957742
137 1 0.117263 0.435807 0.806358
283 1 0.0988746 0.270056 0.847465
318 2 0.172082 0.342222 0.943665
34 1 0.251181 0.354367 0.809345
317 2 0.229758 0.228849 0.804705
352 2 0.645289 0.037452 0.954536
67 1 0.393981 0.489485 0.592809
245 1 0.369301 0.261662 0.813016
22 1 0.418859 0.390781 0.751845
40 1 0.391355 0.427264 0.907151
336 2 0.481864 0.326093 0.841121
106 1 0.689342 0.347344 0.829052
167 1 0.55687 0.426075 0.828215
90 1 0.299371 0.499514 0.781274
253 1 0.906849 0.403705 0.625742
5 1 0.23367 0.472362 0.91582