ITEM: TIMESTEP
0
ITEM: NUMBER OF ATOMS
360
ITEM: BOX BOUNDS pp pp pp
0.0000000000000000e+00 6.6943295008216896e+00
0.0000000000000000e+00 6.6943295008216896e+00
0.0000000000000000e+00 6.6943295008216896e+00
ITEM: ATOMS id type xs ys zs
145 1 0.0500939 0.14247 0.036517
149 1 0.149252 0.165835 0.156188
328 2 0.238488 0.190439 0.0738545
185 1 0.193722 0.0775256 0.0216483
71 1 0.360868 0.171193 0.0502418
334 2 0.274538 0.0541097 0.119357
179 1 0.296971 0.199404 0.196526
35 1 0.406577 0.100093 0.185756
32 1 0.495795 0.00657802 0.106437
33 1 0.355301 0.00731663 0.0229761
8 1 0.591973 0.167707 0.101427
195 1 0.741952 0.0825863 0.166379
306 2 0.627532 0.0281473 0.137625
59 1 0.579313 0.09611 0.2412
108 1 0.636328 0.0206202 0.0179968
323 2 0.877523 0.00597865 0.124349
120 1 0.987914 0.00906501 0.15758
36 1 0.904354 0.146368 0.123384
168 1 0.750343 0.203875 0.076959
320 2 0.804949 0.207436 0.203039
201 1 0.801664 0.0662789 0.0297653
190 1 0.95212 0.0273625 0.0146708
330 2 0.121964 0.483538 0.236885
187 1 0.0566898 0.414331 0.151587
104 1 0.228896 0.448104 0.153315
238 1 0.171528 0.319063 0.198913
54 1 0.0238971 0.255874 0.165236
163 1 0.146487 0.277654 0.0441828
186 1 0.136297 0.4564 0.0303844
63 1 0.38964 0.459052 0.142268
23 1 0.453852 0.251439 0.150158
94 1 0.292643 0.321561 0.0854059
129 1 0.434874 0.380715 0.0235953
110 1 0.49919 0.381018 0.187862
236 1 0.342331 0.33941 0.240392
16 1 0.56795 0.260703 0.246335
29 1 0.708665 0.300298 0.182447
205 1 0.56009 0.47845 0.063726
48 1 0.596862 0.334014 0.0811681
262 1 0.64338 0.440737 0.192425
202 1 0.726652 0.351876 0.0267717
86 1 0.74144 0.492273 0.0888784
273 1 0.780842 0.423792 0.249472
327 2 0.911654 0.456518 0.19745
51 1 0.857974 0.330061 0.144774
100 1 0.874061 0.422091 0.022081
42 1 0.983961 0.324249 0.0386467
333 2 0.85352 0.299279 0.0200809
183 1 0.0427329 0.126021 0.256621
211 1 0.149006 0.0796852 0.365203
247 1 0.190393 0.209969 0.308644
358 2 0.142485 0.0125935 0.471225
274 1 0.157923 0.239808 0.455066
102 1 0.431313 0.241084 0.465236
200 1 0.258232 0.130444 0.442318
257 1 0.370804 0.199802 0.334092
275 1 0.271677 0.0708813 0.260022
64 1 0.376285 0.0463561 0.369304
253 1 0.713026 0.182253 0.292173
34 1 0.705885 0.117442 0.436302
158 1 0.50463 0.129299 0.365454
296 2 0.612384 0.0827033 0.356284
136 1 0.600837 0.242955 0.397746
271 1 0.881048 0.108838 0.276843
213 1 0.986516 0.147444 0.421734
231 1 0.84237 0.180557 0.400629
99 1 0.756162 0.038408 0.313466
265 1 0.0950156 0.458719 0.457085
85 1 0.0679086 0.415708 0.316613
322 2 0.165597 0.350173 0.390691
233 1 0.0178037 0.293791 0.391458
79 1 0.22416 0.442601 0.306763
285 1 0.390102 0.430418 0.479235
142 1 0.283677 0.330092 0.414704
58 1 0.462353 0.326983 0.341808
45 1 0.698994 0.495495 0.396844
242 1 0.661461 0.365701 0.32957
7 1 0.553754 0.395401 0.488815
290 2 0.68459 0.310907 0.463642
80 1 0.549519 0.463571 0.356278
338 2 0.898971 0.287911 0.445134
88 1 0.835116 0.484545 0.455224
295 2 0.769562 0.307429 0.305513
170 1 0.792429 0.349321 0.417922
38 1 0.902449 0.424232 0.327644
171 1 0.920207 0.252528 0.284164
56 1 0.0796455 0.140848 0.704457
66 1 0.0156685 0.24137 0.562793
176 1 0.222732 0.113202 0.6293
216 1 0.157445 0.241124 0.620657
19 1 0.0952823 0.12518 0.533954
78 1 0.102437 0.00141816 0.614732
2 1 0.442039 0.190387 0.622816
197 1 0.351515 0.0522114 0.680927
87 1 0.315956 0.215806 0.719874
15 1 0.398915 0.088058 0.517953
280 1 0.299928 0.239986 0.551196
161 1 0.566499 0.157809 0.510831
259 1 0.57287 0.188333 0.701679
138 1 0.678216 0.096423 0.627335
169 1 0.523336 0.0466439 0.612188
332 2 0.631009 0.0365877 0.514601
292 2 0.976795 0.209816 0.682069
356 2 0.895296 0.191634 0.525569
326 2 0.992218 0.0130956 0.685623
101 1 0.823576 0.0745964 0.523573
107 1 0.774354 0.085295 0.748596
4 1 0.964177 0.0979902 0.599004
302 2 0.858545 0.0547918 0.640087
10 1 0.838564 0.182984 0.654519
227 1 0.750993 0.216797 0.541579
153 1 0.221191 0.369487 0.546755
281 1 0.0674158 0.391678 0.618055
309 2 0.0945062 0.321675 0.723563
20 1 0.199078 0.430123 0.698616
350 2 0.0903759 0.342491 0.503477
294 2 0.257548 0.317112 0.692378
222 1 0.468131 0.463198 0.59918
39 1 0.480558 0.317158 0.698078
130 1 0.359462 0.360832 0.619106
324 2 0.284335 0.476584 0.582518
304 2 0.470834 0.317378 0.56725
360 2 0.416169 0.429094 0.721929
325 2 0.640001 0.314931 0.714367
52 1 0.609619 0.287827 0.577966
241 1 0.623122 0.435905 0.66025
194 1 0.705115 0.418217 0.531579
345 2 0.744598 0.444452 0.660492
317 2 0.980003 0.460209 0.68265
147 1 0.760204 0.313414 0.675518
17 1 0.859957 0.320005 0.569927
57 1 0.866127 0.468379 0.609476
269 1 0.939208 0.325664 0.688618
283 1 0.966869 0.385738 0.505934
164 1 0.225918 0.093943 0.775673
30 1 0.0254455 0.248679 0.800801
61 1 0.0925578 0.00079924 0.770523
293 2 0.171817 0.0763788 0.894204
37 1 0.135576 0.202347 0.904411
199 1 0.0317411 0.0953786 0.884936
329 2 0.0170524 0.247044 0.926214
117 1 0.19181 0.242209 0.780637
127 1 0.476424 0.045968 0.759556
305 2 0.351832 0.100312 0.789083
220 1 0.40713 0.0632224 0.888524
267 1 0.276801 0.151272 0.914219
234 1 0.443677 0.194504 0.801286
343 2 0.424475 0.173119 0.938681
359 2 0.336226 0.246695 0.847004
355 2 0.485895 0.0235797 0.979337
319 2 0.608049 0.131088 0.805611
143 1 0.551209 0.123033 0.925061
184 1 0.650423 0.225665 0.956445
223 1 0.712165 0.214361 0.78688
139 1 0.706075 0.100141 0.889705
210 1 0.937575 0.110535 0.751249
144 1 0.907376 0.179907 0.976302
92 1 0.86465 0.234336 0.803486
128 1 0.860711 0.0575367 0.87972
331 2 0.184881 0.367416 0.81017
81 1 0.0955083 0.346294 0.917985
208 1 0.247245 0.3224 0.904474
178 1 0.212491 0.493489 0.840488
279 1 0.0294856 0.416415 0.795419
300 2 0.00741692 0.430656 0.943169
90 1 0.378323 0.491079 0.843537
313 2 0.474304 0.451448 0.913773
93 1 0.439035 0.333626 0.877499
82 1 0.328027 0.361555 0.779174
261 1 0.29393 0.448939 0.98787
337 2 0.359079 0.277909 0.976237
73 1 0.494015 0.257415 0.989657
123 1 0.576494 0.27729 0.834108
212 1 0.532459 0.419027 0.800445
182 1 0.692159 0.383673 0.803924
26 1 0.617735 0.414764 0.932765
308 2 0.807904 0.395076 0.911657
193 1 0.83754 0.40185 0.77784
219 1 0.927119 0.35093 0.893456
209 1 0.788699 0.270083 0.920231
249 1 0.104213 0.707416 0.0628505
206 1 0.118218 0.574273 0.145004
215 1 0.235475 0.700879 0.179243
60 1 0.0033468 0.523575 0.035262
154 1 0.273059 0.571343 0.0814215
6 1 0.390047 0.661469 0.108587
341 2 0.400516 0.617432 0.237054
226 1 0.496702 0.566621 0.18087
84 1 0.430552 0.53732 0.00351027
318 2 0.479062 0.700401 0.201728
116 1 0.538247 0.663053 0.0805292
297 2 0.642826 0.573981 0.14914
268 1 0.604161 0.688099 0.22939
152 1 0.654668 0.600842 0.0123209
218 1 0.735175 0.655852 0.134244
65 1 0.988244 0.671611 0.176473
28 1 0.872011 0.717929 0.0827748
12 1 0.86007 0.561553 0.182399
14 1 0.829315 0.587436 0.00402139
342 2 0.851128 0.692633 0.223571
5 1 0.0833454 0.870358 0.119056
299 2 0.194614 0.814778 0.115075
55 1 0.0967312 0.762741 0.228992
263 1 0.220344 0.947399 0.0827411
312 2 0.0307925 0.866678 0.231509
189 1 0.138443 0.99358 0.212071
277 1 0.235013 0.860909 0.227658
339 2 0.0965054 0.99371 0.08991
244 1 0.318171 0.812498 0.101667
191 1 0.346691 0.960472 0.173637
289 2 0.413131 0.897222 0.0600388
336 2 0.403543 0.840747 0.207933
77 1 0.483213 0.803195 0.121895
272 1 0.556575 0.895196 0.0133821
248 1 0.660813 0.78996 0.091697
11 1 0.594641 0.908633 0.169047
291 2 0.721729 0.915541 0.226134
286 1 0.745213 0.936638 0.101432
357 2 0.992316 0.781527 0.116074
250 1 0.781207 0.80554 0.19301
353 2 0.816322 0.839921 0.0448668
43 1 0.916235 0.887373 0.101555
103 1 0.928066 0.796204 0.24202
121 1 0.861521 0.950051 0.233788
307 2 0.144411 0.64617 0.25552
188 1 0.202471 0.643566 0.465045
311 2 0.0969952 0.585253 0.483892
159 1 0.219753 0.714341 0.323687
140 1 0.129877 0.559017 0.338343
243 1 0.0206018 0.67706 0.341696
246 1 0.0964315 0.748597 0.456623
1 1 0.278614 0.579204 0.257851
49 1 0.338474 0.632363 0.390037
133 1 0.362431 0.735329 0.266991
68 1 0.485806 0.652219 0.323254
27 1 0.469492 0.555982 0.459355
270 1 0.415544 0.508074 0.306137
3 1 0.257946 0.502779 0.443475
141 1 0.552458 0.723211 0.496628
156 1 0.710547 0.553969 0.267668
303 2 0.583402 0.552465 0.269363
74 1 0.617763 0.622591 0.39152
13 1 0.746604 0.691104 0.323129
354 2 0.577749 0.738926 0.353035
31 1 0.979821 0.535338 0.421247
172 1 0.995094 0.534178 0.256476
166 1 0.75571 0.617039 0.463583
40 1 0.868218 0.588911 0.33923
122 1 0.87276 0.717441 0.40931
173 1 0.0171833 0.973025 0.310659
119 1 0.0230485 0.987598 0.469328
76 1 0.11516 0.864333 0.356174
83 1 0.2397 0.960184 0.382627
207 1 0.388658 0.913471 0.474624
203 1 0.432013 0.76667 0.403723
278 1 0.277908 0.806551 0.444517
160 1 0.353749 0.877458 0.327054
340 2 0.466218 0.899535 0.368269
124 1 0.461822 0.986534 0.263582
137 1 0.506118 0.806884 0.277679
89 1 0.523977 0.99766 0.451125
287 1 0.60802 0.965292 0.311929
91 1 0.714368 0.776622 0.46201
192 1 0.575502 0.860661 0.430702
175 1 0.717612 0.957354 0.456893
50 1 0.66811 0.831774 0.319128
165 1 0.822896 0.862237 0.356406
115 1 0.973995 0.840275 0.405403
111 1 0.890732 0.997957 0.38741
204 1 0.0760507 0.557397 0.720585
181 1 0.103934 0.67931 0.602488
224 1 0.182057 0.537051 0.573096
21 1 0.00559233 0.526207 0.57121
310 2 0.21146 0.73822 0.54843
344 2 0.196671 0.569329 0.712998
47 1 0.253513 0.681819 0.654123
264 1 0.347727 0.580401 0.544766
240 1 0.400408 0.671237 0.708525
22 1 0.378794 0.742276 0.543319
232 1 0.325249 0.521619 0.70305
167 1 0.478202 0.619321 0.600783
198 1 0.474522 0.541883 0.734118
276 1 0.617513 0.591581 0.703499
235 1 0.665044 0.691212 0.589572
349 2 0.651111 0.716988 0.745131
134 1 0.746443 0.563521 0.598833
282 1 0.603035 0.547178 0.531947
126 1 0.857056 0.691501 0.580022
9 1 0.768028 0.666772 0.712049
237 1 0.972679 0.694699 0.682439
25 1 0.907162 0.566157 0.722892
24 1 0.981531 0.650838 0.506313
347 2 0.871883 0.566684 0.541009
225 1 0.139841 0.820047 0.654642
70 1 0.222385 0.961945 0.699856
266 1 0.147554 0.877943 0.508709
315 2 0.383838 0.846308 0.69118
174 1 0.290974 0.857003 0.599524
113 1 0.435337 0.928886 0.622778
301 2 0.488435 0.846504 0.534169
151 1 0.261494 0.810343 0.746035
251 1 0.26374 0.996099 0.538246
118 1 0.515123 0.882775 0.745357
229 1 0.592259 0.906925 0.580504
125 1 0.512255 0.776497 0.641614
214 1 0.686192 0.836994 0.689902
335 2 0.731872 0.849344 0.569579
106 1 0.627979 0.993549 0.733157
258 1 0.994104 0.885897 0.69361
44 1 0.883778 0.97092 0.741666
18 1 0.987074 0.792255 0.564474
135 1 0.916317 0.953594 0.569469
228 1 0.840897 0.83423 0.67052
75 1 0.756262 0.965582 0.620985
114 1 0.849895 0.835418 0.514341
256 1 0.0638624 0.536778 0.892914
157 1 0.124189 0.713862 0.75765
348 2 0.142678 0.61564 0.834604
95 1 0.183538 0.594661 0.972215
346 2 0.21639 0.748086 0.836105
260 1 0.122438 0.722627 0.905875
351 2 0.309774 0.570986 0.949042
230 1 0.269507 0.633893 0.822448
53 1 0.404718 0.650586 0.896724
72 1 0.285469 0.709729 0.965834
69 1 0.742836 0.513493 0.905701
196 1 0.55039 0.560369 0.910995
146 1 0.529151 0.673766 0.797568
109 1 0.672408 0.645168 0.84371
298 2 0.632429 0.531802 0.826615
150 1 0.74673 0.722517 0.971429
41 1 0.566667 0.742072 0.946535
96 1 0.751712 0.522573 0.760309
255 1 0.982513 0.643839 0.833133
62 1 0.822905 0.643849 0.854947
352 2 0.879763 0.717145 0.770757
162 1 0.985998 0.666245 0.986268
67 1 0.914935 0.516801 0.886371
97 1 0.0178554 0.833638 0.969884
105 1 0.0993758 0.976379 0.962485
112 1 0.249959 0.97302 0.902577
132 1 0.122161 0.862866 0.826876
239 1 0.18013 0.836377 0.988145
46 1 0.424222 0.770402 0.98379
180 1 0.42085 0.792638 0.822285
245 1 0.295372 0.830949 0.884833
254 1 0.364905 0.94717 0.796332
98 1 0.426943 0.916589 0.939258
314 2 0.299764 0.891191 0.986549
131 1 0.743586 0.939393 0.80744
321 2 0.73974 0.991301 0.955907
155 1 0.633678 0.816775 0.826599
284 1 0.712341 0.863134 0.951389
148 1 0.574913 0.962215 0.880628
316 2 0.871587 0.878948 0.842707
288 1 0.852883 0.921241 0.962091
177 1 0.778222 0.784608 0.812566
221 1 0.978496 0.78833 0.818171
252 1 0.990985 0.943242 0.868405
217 1 0.884512 0.763127 0.933564
ITEM: TIMESTEP
100000
ITEM: NUMBER OF ATOMS
360
ITEM: BOX BOUNDS pp pp pp
0.0000000000000000e+00 6.6943295008216896e+00
0.0000000000000000e+00 6.6943295008216896e+00
0.0000000000000000e+00 6.6943295008216896e+00
ITEM: ATOMS id type xs ys zs
145 1 0.140751 0.108682 0.169445
314 2 0.229446 0.0871505 0.0467899
36 1 0.00720746 0.209964 0.144289
23 1 0.248491 0.199765 0.121837
149 1 0.984054 0.0560373 0.100571
81 1 0.118956 0.268151 0.242039
219 1 0.911305 0.16704 0.00168669
33 1 0.386953 0.165555 0.195018
220 1 0.367745 0.131444 0.0440737
71 1 0.30301 0.0413947 0.161553
191 1 0.462015 0.0257687 0.109274
313 2 0.413469 0.298839 0.191225
73 1 0.509644 0.206632 0.0913452
124 1 0.624272 0.100688 0.0470257
168 1 0.716393 0.0781356 0.178015
110 1 0.665303 0.226756 0.211412
160 1 0.523101 0.102916 0.231461
119 1 0.0025284 0.0564543 0.253224
100 1 0.771777 0.201596 0.0859516
333 2 0.826096 0.0723934 0.0518002
183 1 0.877445 0.130227 0.167757
331 2 0.12632 0.230595 0.11001
186 1 0.0531076 0.363681 0.0812358
79 1 0.199412 0.357982 0.119646
303 2 0.415584 0.38394 0.446835
31 1 0.0976507 0.433922 0.237572
80 1 0.488451 0.480101 0.391125
330 2 0.274665 0.443233 0.0527687
236 1 0.361601 0.408988 0.160443
129 1 0.35841 0.274984 0.055344
306 2 0.465049 0.367899 0.0792143
16 1 0.292396 0.294662 0.244889
350 2 0.232588 0.439514 0.492057
205 1 0.527494 0.266869 0.242169
26 1 0.58856 0.341004 0.111089
29 1 0.704937 0.379674 0.228212
60 1 0.747698 0.363088 0.0791245
27 1 0.631299 0.357593 0.499115
247 1 0.963011 0.352571 0.245397
327 2 0.870564 0.40343 0.17623
187 1 0.893442 0.311107 0.0738385
51 1 0.822951 0.280358 0.214707
255 1 0.93843 0.477526 0.0968014
211 1 0.19785 0.015115 0.268663
19 1 0.0305414 0.173499 0.457884
3 1 0.10711 0.138736 0.320709
200 1 0.212491 0.0969327 0.437959
78 1 0.0795993 0.0246913 0.446578
58 1 0.26552 0.151721 0.304223
11 1 0.372252 0.046147 0.296698
8 1 0.43559 0.192373 0.343282
15 1 0.374148 0.091623 0.463711
278 1 0.515149 0.0234765 0.372538
99 1 0.672789 0.0461908 0.320868
287 1 0.595371 0.174994 0.355126
101 1 0.69891 0.119277 0.484128
296 2 0.630912 0.236873 0.457541
83 1 0.934994 0.18795 0.315208
135 1 0.933402 0.051223 0.406771
34 1 0.778059 0.168122 0.305019
173 1 0.845078 0.166385 0.434327
256 1 0.143157 0.474978 0.00217728
231 1 0.00546865 0.451139 0.357914
179 1 0.185287 0.277246 0.381324
233 1 0.0331315 0.297568 0.381062
130 1 0.152169 0.427843 0.379415
275 1 0.100735 0.123906 0.0194545
153 1 0.885126 0.319592 0.460149
158 1 0.339962 0.24575 0.449116
140 1 0.29977 0.387411 0.405225
142 1 0.43307 0.353796 0.314017
243 1 0.272915 0.450178 0.270212
69 1 0.632006 0.477679 0.1359
7 1 0.507132 0.287606 0.453761
341 2 0.537672 0.412334 0.197179
59 1 0.593716 0.357742 0.346141
136 1 0.726239 0.305675 0.38527
360 2 0.706315 0.432481 0.357914
307 2 0.870755 0.302464 0.33024
111 1 0.772197 0.415626 0.469987
171 1 0.840207 0.427625 0.296424
213 1 0.832271 0.0247825 0.282439
347 2 0.865739 0.486906 0.416711
48 1 0.652234 0.249998 0.00126507
164 1 0.203902 0.22313 0.68427
293 2 0.1365 0.116619 0.715451
274 1 0.208814 0.0910283 0.594293
56 1 0.0585331 0.204436 0.634325
4 1 0.97027 0.0804371 0.561743
194 1 0.6119 0.442746 0.635969
280 1 0.31723 0.193061 0.586139
169 1 0.469206 0.164524 0.650651
2 1 0.371625 0.0475701 0.61504
325 2 0.388851 0.12666 0.730031
318 2 0.517803 0.493191 0.844344
70 1 0.266167 0.0853277 0.745357
89 1 0.525691 0.101586 0.500336
37 1 0.119791 0.00249577 0.795029
229 1 0.65098 0.0381553 0.60691
161 1 0.615034 0.154864 0.725981
64 1 0.606087 0.206795 0.572791
144 1 0.760289 0.154521 0.66735
332 2 0.764678 0.0120296 0.666257
336 2 0.445598 0.204339 0.524812
30 1 0.990927 0.0914087 0.731924
85 1 0.902041 0.209616 0.590255
66 1 0.812753 0.0624931 0.559266
302 2 0.885978 0.104703 0.66057
227 1 0.758824 0.272367 0.544529
96 1 0.850231 0.375183 0.826415
87 1 0.0946186 0.350889 0.524922
224 1 0.113506 0.357705 0.694796
102 1 0.253699 0.339919 0.561841
317 2 0.0388904 0.45701 0.602394
246 1 0.184827 0.476238 0.605994
234 1 0.341444 0.280021 0.710656
359 2 0.235984 0.393205 0.694235
356 2 0.278673 0.00164032 0.522932
39 1 0.373778 0.433032 0.67177
259 1 0.489034 0.454481 0.546305
265 1 0.41784 0.330056 0.571426
82 1 0.506998 0.305916 0.694845
107 1 0.664323 0.011966 0.758962
290 2 0.552357 0.343009 0.594538
217 1 0.852093 0.439037 0.96839
10 1 0.66425 0.303795 0.676374
52 1 0.76032 0.434617 0.629989
322 2 0.986329 0.271809 0.518132
181 1 0.98235 0.341781 0.624196
17 1 0.828016 0.312194 0.693562
338 2 0.846738 0.353913 0.575546
283 1 0.935055 0.450306 0.526442
57 1 0.906486 0.458277 0.689107
112 1 0.154079 0.148929 0.846498
117 1 0.238396 0.189456 0.970071
267 1 0.226406 0.0267019 0.921095
199 1 0.0144077 0.123797 0.896097
202 1 0.809825 0.251553 0.941254
305 2 0.287385 0.203629 0.803826
254 1 0.374768 0.108744 0.877638
123 1 0.458753 0.210509 0.804189
289 2 0.430115 0.195222 0.958171
108 1 0.490731 0.0813096 0.971006
138 1 0.510433 0.0629544 0.802752
223 1 0.617656 0.152579 0.880274
329 2 0.720084 0.121525 0.80823
109 1 0.549034 0.428524 0.978644
269 1 0.0214001 0.418605 0.791566
184 1 0.758423 0.0976487 0.951104
193 1 0.889056 0.201787 0.783851
308 2 0.879639 0.113999 0.886023
209 1 0.82778 0.059894 0.770494
279 1 0.964105 0.288567 0.89759
216 1 0.0439385 0.238025 0.776861
185 1 0.0982017 0.270079 0.981666
94 1 0.231646 0.356047 0.964208
309 2 0.090622 0.361469 0.897991
281 1 0.161451 0.458253 0.848287
232 1 0.184403 0.296555 0.832008
324 2 0.491982 0.442706 0.704722
201 1 0.905097 -0.00402202 0.962207
208 1 0.33886 0.273376 0.897069
212 1 0.46348 0.377246 0.837616
178 1 0.301962 0.398775 0.810191
292 2 0.947572 0.311315 0.761334
92 1 0.723639 0.248451 0.805199
345 2 0.740446 0.382869 0.75935
182 1 0.613388 0.393003 0.787106
320 2 0.580566 0.265819 0.810156
147 1 0.715886 0.373274 0.902841
42 1 1.00467 0.439691 0.9473
152 1 0.517441 0.283971 0.937112
196 1 0.388187 0.420209 0.995908
127 1 0.512436 -0.00448059 0.654699
334 2 0.0907714 0.103973 0.541299
257 1 0.170204 0.219386 0.522231
258 1 0.0899017 0.0186303 0.627019
222 1 0.347414 0.493444 0.510394
206 1 0.204753 0.626529 0.0281408
24 1 0.0957145 0.636592 0.16664
263 1 0.334932 0.98818 0.0227443
352 2 0.0406915 0.712084 0.0706873
175 1 0.827049 0.838188 0.460837
1 1 0.259427 0.655897 0.194389
154 1 0.327088 0.728869 0.0691469
104 1 0.339214 0.570245 0.0690008
156 1 0.416906 0.642905 0.181962
242 1 0.45003 0.508111 0.253211
76 1 0.776505 0.996909 0.422572
38 1 0.0752829 0.513113 0.488694
84 1 0.501556 0.70121 0.048202
116 1 0.55282 0.647071 0.218281
291 2 0.671604 0.716321 0.145646
41 1 0.631809 0.616923 0.0869852
62 1 0.717878 0.634609 0.223219
351 2 0.336961 0.54181 0.19857
28 1 0.783882 0.699593 0.0613202
12 1 0.941869 0.657246 0.135802
300 2 0.811873 0.713197 0.175491
54 1 0.79414 0.525115 0.130926
189 1 0.151753 0.987981 0.0854129
65 1 0.161669 0.752111 0.099681
55 1 0.167569 0.871617 0.202555
120 1 0.0350236 0.783452 0.181368
43 1 0.0495131 0.847254 0.0509737
163 1 0.216009 0.510131 0.142174
215 1 0.278908 0.863137 0.0973261
357 2 0.267521 0.790209 0.195533
226 1 0.409633 0.802459 0.189726
6 1 0.427226 0.854046 0.0512567
35 1 0.473085 0.934914 0.243488
340 2 0.377384 0.931998 0.14416
68 1 0.606358 0.970131 0.166764
250 1 0.764714 0.884989 0.317165
262 1 0.61358 0.511069 0.294327
77 1 0.658095 0.767727 0.0276239
273 1 0.570427 0.795655 0.160839
272 1 0.576659 0.914384 0.0307491
63 1 0.490877 0.525352 0.0866949
218 1 0.734894 0.832667 0.153297
337 2 0.716848 0.953319 0.218601
339 2 0.94717 0.913056 0.0743047
295 2 0.849905 0.88939 0.219508
195 1 0.846833 0.980121 0.136079
165 1 0.884411 0.809644 0.1306
288 1 0.970229 0.924719 0.205242
172 1 0.0267316 0.590622 0.0177048
266 1 0.150556 0.747655 0.292809
285 1 0.170776 0.581519 0.299036
88 1 0.114462 0.670988 0.437203
344 2 0.226956 0.682474 0.38263
328 2 0.0606078 0.567612 0.358682
188 1 0.221625 0.561734 0.465004
40 1 0.00960198 0.659789 0.299125
240 1 0.331869 0.668156 0.464848
49 1 0.325691 0.577614 0.332079
13 1 0.467633 0.652582 0.358842
358 2 0.395161 0.777092 0.428497
270 1 0.345613 0.729536 0.30612
166 1 0.618512 0.6455 0.363968
14 1 0.751749 0.55434 0.392891
323 2 0.0837288 0.97691 0.205047
103 1 0.92719 0.91 0.358586
114 1 0.966368 0.771734 0.421268
50 1 0.894164 0.763072 0.280915
86 1 0.803834 0.69417 0.390945
126 1 0.936589 0.597953 0.44327
122 1 0.857753 0.589774 0.26798
312 2 0.0207997 0.804444 0.31071
197 1 0.254472 0.796573 0.414246
251 1 0.10533 0.826919 0.430886
311 2 0.194054 0.871114 0.326723
271 1 0.0742594 0.924724 0.319685
277 1 0.316085 0.90019 0.253085
159 1 0.257047 0.956043 0.391385
133 1 0.405871 0.913032 0.381813
9 1 0.673336 0.822668 0.432393
113 1 0.52702 0.780681 0.468915
192 1 0.617511 0.914055 0.305902
74 1 0.49435 0.799764 0.315634
268 1 0.667387 0.772935 0.275844
354 2 0.527052 0.904429 0.400994
137 1 0.629835 0.971891 0.462131
170 1 0.622902 0.519208 0.482503
253 1 0.71362 0.980959 0.049109
348 2 0.0627492 0.518534 0.104668
238 1 0.991134 0.538569 0.225024
45 1 0.709919 0.682936 0.505594
248 1 0.822719 0.866605 0.00726455
297 2 0.737958 0.505858 0.256992
237 1 0.108709 0.626294 0.590043
157 1 0.18247 0.682149 0.700559
214 1 0.00917011 0.68869 0.684188
276 1 0.0731451 0.540327 0.712228
176 1 0.346702 0.870329 0.525151
22 1 0.213356 0.752252 0.558952
174 1 0.289337 0.610453 0.616683
146 1 0.415912 0.734076 0.580883
125 1 0.467363 0.700075 0.735069
20 1 0.438674 0.578743 0.636361
105 1 0.0569973 0.980064 0.953648
282 1 0.693874 0.575361 0.617819
61 1 0.960219 0.986993 0.83002
304 2 0.561925 0.575777 0.613231
203 1 0.59962 0.703832 0.621718
21 1 0.959917 0.578253 0.601191
91 1 0.882192 0.70442 0.5284
228 1 0.833946 0.626742 0.689671
134 1 0.821154 0.560265 0.534227
342 2 0.969847 0.592664 0.756427
148 1 0.877806 0.774634 0.745903
47 1 0.181464 0.928681 0.528578
18 1 0.0499621 0.789514 0.584392
115 1 0.991558 0.922395 0.512162
132 1 0.154568 0.843593 0.702978
225 1 0.260955 0.943743 0.669232
299 2 0.379795 0.887178 0.661439
335 2 0.858997 0.952745 0.521384
118 1 0.49443 0.838122 0.648484
151 1 0.297699 0.783645 0.675027
67 1 0.855777 0.585422 0.985682
141 1 0.621259 0.843441 0.567351
301 2 0.641177 0.907138 0.677924
235 1 0.625921 0.792948 0.741748
106 1 0.538563 0.91461 0.788655
121 1 0.747736 0.768758 0.635281
44 1 0.746973 0.913534 0.595225
128 1 0.767118 0.897596 0.746527
252 1 0.0126034 0.876891 0.722028
75 1 0.897723 0.828063 0.602161
210 1 0.902651 0.967379 0.663757
32 1 0.381766 0.993 0.757349
190 1 0.885219 0.851123 0.867986
346 2 0.109512 0.757701 0.78182
221 1 0.181734 0.639002 0.842776
204 1 0.0580886 0.568184 0.862433
25 1 0.989683 0.702535 0.835115
310 2 0.0111398 0.686822 0.513302
207 1 0.485193 0.941354 0.513231
90 1 0.462321 0.556118 0.942134
5 1 0.33544 0.655653 0.9193
53 1 0.328385 0.661322 0.771736
230 1 0.394761 0.510458 0.806207
298 2 0.434786 0.632616 0.839875
245 1 0.560011 0.66005 0.846368
353 2 0.589982 0.583924 0.969819
241 1 0.553408 0.55374 0.734405
180 1 0.638385 0.522813 0.858157
264 1 0.687789 0.657017 0.767209
284 1 0.696848 0.649596 0.937991
349 2 0.777582 0.529959 0.895091
150 1 0.823637 0.664601 0.842975
177 1 0.913447 0.527352 0.840989
316 2 0.821792 0.748713 0.950089
93 1 0.261132 0.522687 0.734993
95 1 0.0962559 0.733678 0.944671
260 1 0.232593 0.77665 0.827838
97 1 0.092513 0.859802 0.848954
239 1 0.256701 0.92407 0.819065
249 1 0.17878 0.85917 0.970915
321 2 0.979832 0.876312 0.939758
294 2 0.220869 0.744902 0.956762
355 2 0.351202 0.982307 0.889221
167 1 0.770387 0.509076 0.771402
98 1 0.399905 0.836532 0.793031
72 1 0.327454 0.846595 0.944248
46 1 0.447002 0.749752 0.91083
244 1 0.46381 0.938 0.913833
315 2 0.515959 0.7866 0.808598
319 2 0.657655 0.898128 0.822675
343 2 0.68967 0.879885 0.96233
143 1 0.587494 0.815423 0.904956
131 1 0.727858 0.791517 0.879726
326 2 0.745563 0.771036 0.762843
286 1 0.768726 0.954573 0.885717
162 1 0.938748 0.742652 0.989531
198 1 0.494564 0.625901 0.499647
139 1 0.612172 0.984051 0.901647
261 1 0.278788 0.510365 0.933957
155 1 0.702666 0.50808 0.999011
ITEM: TIMESTEP
200000
ITEM: NUMBER OF ATOMS
360
ITEM: BOX BOUNDS pp pp pp
0.0000000000000000e+00 6.6943295008216896e+00
0.0000000000000000e+00 6.6943295008216896e+00
0.0000000000000000e+00 6.6943295008216896e+00
ITEM: ATOMS id type xs ys zs
112 1 0.190095 0.110622 0.133481
149 1 0.0452191 0.213767 0.123151
313 2 0.162319 0.208469 0.211587
309 2 0.0418202 0.0779334 0.0748573
23 1 0.0312232 0.0833628 0.218714
232 1 0.239701 0.211052 0.0109562
59 1 0.474087 0.471343 0.278968
51 1 0.758243 0.378967 0.338036
305 2 0.303771 0.107826 0.0607575
211 1 0.365506 0.0892115 0.175733
242 1 0.435061 0.205429 0.237319
129 1 0.381289 0.227628 0.0777105
292 2 0.974255 0.30791 0.459123
220 1 0.536709 0.240785 0.0723714
3 1 0.518585 0.108572 0.147235
8 1 0.672273 0.0880532 0.06814
48 1 0.638062 0.182855 0.205203
60 1 0.693294 0.257065 0.0449296
124 1 0.784484 0.0921885 0.194622
219 1 0.916568 0.0981558 0.119476
213 1 0.80615 0.0121354 0.0295248
110 1 0.811303 0.234389 0.139405
137 1 0.910998 0.178065 0.262973
94 1 0.110789 0.361777 0.1655
243 1 0.231121 0.28925 0.141717
351 2 0.136715 0.483448 0.228676
357 2 0.201525 0.393716 0.0841816
285 1 0.257324 0.437272 0.204335
202 1 0.329645 0.37554 0.0478254
142 1 0.398637 0.352217 0.183218
262 1 0.510036 0.396626 0.0644356
327 2 0.619943 0.344204 0.104708
171 1 0.661593 0.450601 0.0542991
26 1 0.705736 0.327637 0.197131
223 1 0.408289 0.075262 0.00872552
73 1 0.541775 0.321385 0.198378
322 2 0.754155 0.446372 0.240666
24 1 0.996928 0.443596 0.098407
183 1 0.948019 0.318076 0.183128
54 1 0.830198 0.396327 0.103665
333 2 0.839018 0.321606 0.236872
231 1 0.888716 0.451308 0.249697
347 2 0.764786 0.481739 0.443222
332 2 0.120714 0.141422 0.445358
257 1 0.194834 0.0394431 0.431128
135 1 0.163569 0.117066 0.312829
274 1 0.237846 0.181425 0.450883
311 2 0.26176 0.0528739 0.240299
16 1 0.283055 0.197407 0.251319
200 1 0.331935 0.0923948 0.35593
331 2 0.454624 0.165784 0.356006
33 1 0.471799 0.0545986 0.281814
158 1 0.357932 0.259636 0.380589
116 1 0.61844 0.455553 0.210914
160 1 0.646466 0.0492649 0.28575
136 1 0.759016 0.228909 0.296687
205 1 0.573659 0.209671 0.333567
278 1 0.529321 0.0642065 0.432344
338 2 0.567613 0.185044 0.460942
101 1 0.692696 0.104004 0.428651
4 1 0.994623 0.166865 0.395557
302 2 0.877266 0.0868012 0.475131
337 2 0.798076 0.110462 0.32757
34 1 0.837295 0.189159 0.418146
76 1 0.90646 0.0448942 0.349788
186 1 0.0395284 0.415557 0.298143
173 1 0.0662149 0.24284 0.281533
38 1 0.0577546 0.416052 0.450266
81 1 0.197167 0.313142 0.314939
19 1 0.0977155 0.265532 0.453152
40 1 0.173557 0.471946 0.358981
103 1 0.0571622 0.0228673 0.37181
179 1 0.226872 0.355884 0.463703
344 2 0.300424 0.327291 0.257402
360 2 0.444501 0.340399 0.302293
7 1 0.317205 0.41293 0.351
283 1 0.667317 0.423457 0.495117
247 1 0.805433 0.34358 0.481589
29 1 0.582843 0.366441 0.338008
17 1 0.677975 0.280863 0.422775
153 1 0.478302 0.318258 0.444652
31 1 0.904012 0.309919 0.347406
233 1 0.915576 0.451339 0.423992
289 2 0.527829 0.122908 0.0210765
287 1 0.434604 0.175036 0.485703
100 1 0.921118 0.223824 0.0318752
49 1 0.388436 0.497492 0.146363
341 2 0.430989 0.499943 0.0241866
185 1 0.0753676 0.325098 0.0124508
336 2 0.346313 0.27952 0.499441
11 1 0.337818 0.0445186 0.496878
181 1 0.0715224 0.142256 0.552828
15 1 0.215933 0.103652 0.585376
164 1 0.11672 0.219672 0.727139
56 1 0.106263 0.065835 0.686183
87 1 0.184518 0.256036 0.585653
356 2 0.348642 0.0494163 0.633751
161 1 0.342885 0.18999 0.605631
127 1 0.28211 0.117436 0.731127
207 1 0.458291 0.049952 0.581039
92 1 0.499546 0.181498 0.643483
224 1 0.0618822 0.492473 0.632403
66 1 0.609646 0.119249 0.563039
306 2 0.695159 0.120743 0.655194
144 1 0.751867 0.208135 0.553005
89 1 0.654778 0.241101 0.684695
229 1 0.58509 0.0765815 0.727878
79 1 0.196108 0.39499 0.95063
30 1 0.969059 0.226907 0.697737
139 1 0.807885 0.18512 0.707023
210 1 0.919993 0.0771846 0.690369
141 1 0.793797 0.070879 0.576358
85 1 0.920886 0.214628 0.55464
319 2 0.795311 0.064933 0.719494
147 1 0.838842 0.450212 0.851502
255 1 0.947638 0.401093 0.949689
102 1 0.156833 0.370982 0.700275
130 1 0.18846 0.456423 0.556125
279 1 0.0426648 0.324737 0.590107
299 2 0.242261 0.271525 0.721724
265 1 0.302495 0.352502 0.648059
169 1 0.444135 0.321429 0.60284
324 2 0.409867 0.435429 0.632285
168 1 0.677851 0.0279734 0.930803
37 1 0.240991 0.040678 0.964937
282 1 0.521022 0.46451 0.542516
290 2 0.53506 0.30934 0.693269
27 1 0.589122 0.292041 0.545838
194 1 0.613346 0.40461 0.652548
297 2 0.709963 0.343961 0.57805
64 1 0.731723 0.378049 0.752448
228 1 0.976656 0.374945 0.724206
227 1 0.782508 0.457644 0.588393
52 1 0.839471 0.314025 0.635436
308 2 0.84899 0.417769 0.730795
96 1 0.930021 0.430388 0.580512
140 1 0.362254 0.416282 0.515689
70 1 0.170485 0.099061 0.838513
199 1 0.0662968 0.168167 0.98453
209 1 0.00289523 0.109949 0.811517
280 1 0.190823 0.251054 0.858266
42 1 0.995985 0.255392 0.859089
2 1 0.314522 0.153693 0.893697
184 1 0.438236 0.114828 0.767865
253 1 0.468655 0.190094 0.917755
36 1 0.861077 0.306206 0.7926
107 1 0.884726 -0.00182354 0.819577
354 2 0.705116 0.00604661 0.509986
286 1 0.721935 0.128861 0.828046
284 1 0.620536 0.173144 0.92857
108 1 0.548128 0.223425 0.791134
99 1 0.779767 0.163517 0.979015
303 2 0.660951 0.475387 0.732117
329 2 0.812489 0.0642385 0.90418
216 1 0.872227 0.168184 0.848566
193 1 0.949805 0.0825467 0.95217
345 2 0.442958 0.316465 0.998758
187 1 0.796132 0.329063 0.951002
269 1 0.0840253 0.371754 0.847443
254 1 0.502847 0.0339755 0.881647
82 1 0.372532 0.253544 0.775416
234 1 0.44129 0.387293 0.755193
318 2 0.309878 0.4332 0.937464
214 1 0.291818 0.400869 0.808207
325 2 0.451463 0.2998 0.85632
152 1 0.452926 0.426931 0.900773
208 1 0.34284 0.303301 0.913363
359 2 0.962861 0.444088 0.820654
177 1 0.695778 0.277765 0.842492
212 1 0.586772 0.404986 0.807082
182 1 0.692821 0.443034 0.894545
10 1 0.585032 0.324601 0.944404
61 1 0.088473 0.00107279 0.942643
44 1 0.967271 0.0213821 0.551827
123 1 0.344734 0.0102121 0.861773