ITEM: TIMESTEP
0
ITEM: NUMBER OF ATOMS
360
ITEM: BOX BOUNDS pp pp pp
0.0000000000000000e+00 6.6943295008216896e+00
0.0000000000000000e+00 6.6943295008216896e+00
0.0000000000000000e+00 6.6943295008216896e+00
ITEM: ATOMS id type xs ys zs
86 1 0.0753831 0.0979996 0.0660736
151 1 0.163751 0.228421 0.13677
120 1 0.147239 0.0287878 0.206166
99 1 0.00778617 0.21999 0.165669
302 2 0.187844 0.0277054 0.0787013
114 1 0.22722 0.153113 0.021292
144 1 0.276669 0.100734 0.163617
51 1 0.409802 0.197583 0.184629
322 2 0.405547 0.0645804 0.126702
61 1 0.374857 0.148362 0.0388244
332 2 0.314184 0.232324 0.111158
69 1 0.494502 0.0482076 0.0352181
274 1 0.382023 0.0365318 0.24988
232 1 0.309711 0.0105947 0.0303266
333 2 0.51535 0.165443 0.0992911
275 1 0.529268 0.0826342 0.202061
158 1 0.657365 0.127252 0.118573
47 1 0.677612 0.00674434 0.208856
10 1 0.653894 0.00105306 0.0268961
306 2 0.751718 0.111572 0.225926
34 1 0.938837 0.126116 0.0202689
131 1 0.858943 0.159744 0.185281
46 1 0.972301 0.0397697 0.160225
49 1 0.80774 0.053335 0.0953485
11 1 0.829672 0.0134309 0.248381
207 1 0.768514 0.168662 0.00109738
29 1 0.0412589 0.264305 0.0145696
248 1 0.169827 0.378378 0.0710202
116 1 0.152813 0.345676 0.228761
358 2 0.047309 0.417893 0.0416237
79 1 0.0165219 0.376207 0.156156
4 1 0.245839 0.494073 0.195437
225 1 0.302421 0.336596 0.178623
285 1 0.45939 0.34184 0.170263
180 1 0.467386 0.273088 0.0382848
294 2 0.392117 0.393092 0.0770943
187 1 0.301204 0.315174 0.0174754
184 1 0.30532 0.486286 0.0471821
298 2 0.35875 0.427256 0.24647
263 1 0.627526 0.348476 0.0330191
109 1 0.705713 0.484141 0.03556
119 1 0.582332 0.252196 0.186752
228 1 0.561436 0.466723 0.104382
169 1 0.676932 0.399187 0.177488
304 2 0.520644 0.46199 0.224924
279 1 0.754746 0.262607 0.140647
55 1 0.902694 0.280007 0.0659872
159 1 0.841767 0.42614 0.113948
229 1 0.87944 0.29853 0.231845
5 1 0.119164 0.177419 0.274824
249 1 0.0673677 0.183279 0.430642
222 1 0.0793192 0.0348246 0.367779
170 1 0.24337 0.158864 0.44987
9 1 0.241892 0.0566637 0.330142
104 1 0.267356 0.196194 0.277755
134 1 0.379771 0.142852 0.382211
6 1 0.470234 0.00387506 0.375099
201 1 0.505047 0.21388 0.30947
299 2 0.582634 0.0383964 0.316079
71 1 0.648782 0.153538 0.285089
231 1 0.590065 0.107834 0.429162
352 2 0.700898 0.196706 0.393008
266 1 0.724187 0.0571942 0.355283
218 1 0.790953 0.110174 0.477221
58 1 0.945788 0.0614457 0.468501
103 1 0.905621 0.214261 0.446485
325 2 0.856253 0.0542168 0.374853
239 1 0.959565 0.13041 0.305925
188 1 0.813187 0.178349 0.327862
94 1 0.205331 0.399232 0.479382
74 1 0.0438155 0.339971 0.475896
220 1 0.117844 0.445866 0.352036
121 1 0.179803 0.275345 0.372238
17 1 0.0229536 0.291431 0.309839
13 1 0.439347 0.268773 0.494362
102 1 0.280873 0.431142 0.350796
226 1 0.377527 0.396593 0.459461
290 2 0.300962 0.288579 0.442289
163 1 0.437739 0.447013 0.334491
97 1 0.375379 0.29351 0.331033
357 2 0.494964 0.329779 0.379049
355 2 0.55824 0.493938 0.361431
198 1 0.570914 0.368365 0.297881
161 1 0.708562 0.300251 0.289563
272 1 0.669841 0.443629 0.393012
87 1 0.610133 0.288153 0.427555
124 1 0.528946 0.410322 0.4668
126 1 0.800235 0.438613 0.260168
348 2 0.86382 0.473454 0.37968
173 1 0.875871 0.354737 0.37047
261 1 0.955548 0.445588 0.283513
37 1 0.980453 0.475684 0.443129
185 1 0.765619 0.299157 0.457868
258 1 0.121044 0.0531988 0.710586
81 1 0.132708 0.0841431 0.541194
26 1 0.138632 0.212884 0.70679
199 1 0.25658 0.141343 0.616805
215 1 0.413251 0.18652 0.647888
111 1 0.395308 0.027768 0.634267
256 1 0.457843 0.0903734 0.521493
117 1 0.310305 0.0350879 0.502101
330 2 0.351944 0.162155 0.513835
194 1 0.557202 0.157332 0.649217
271 1 0.676214 0.194225 0.542645
260 1 0.686694 0.23216 0.700289
241 1 0.7041 0.0807809 0.649861
324 2 0.545357 0.193643 0.511325
259 1 0.676905 0.00294293 0.503672
286 1 0.988707 0.0440131 0.621098
157 1 0.994865 0.195835 0.572337
252 1 0.852342 0.0959523 0.695246
350 2 0.885488 0.111831 0.576877
287 1 0.830309 0.227464 0.608677
164 1 0.998953 0.157055 0.736809
88 1 0.159866 0.252467 0.537454
7 1 0.0768575 0.466783 0.562614
68 1 0.187948 0.367288 0.629898
237 1 0.0231821 0.343465 0.63394
270 1 0.00960585 0.477757 0.719803
177 1 0.403636 0.496796 0.592818
174 1 0.304278 0.281099 0.576442
339 2 0.298916 0.411743 0.574911
91 1 0.433389 0.33971 0.636659
105 1 0.311271 0.409213 0.714242
85 1 0.284558 0.261797 0.731811
303 2 0.459943 0.493325 0.707478
317 2 0.531214 0.280165 0.726042
54 1 0.570974 0.296143 0.587834
14 1 0.54321 0.446911 0.617814
160 1 0.723667 0.342837 0.605661
316 2 0.645825 0.379187 0.504517
360 2 0.68793 0.462819 0.631337
321 2 0.931402 0.266984 0.673529
125 1 0.775044 0.448485 0.505124
43 1 0.902449 0.351186 0.523148
127 1 0.860482 0.386246 0.685409
183 1 0.922946 0.484993 0.595561
141 1 0.164007 0.116328 0.860312
204 1 0.00868286 0.0810298 0.882059
347 2 0.10168 0.157282 0.960882
84 1 0.0647582 0.240253 0.854761
309 2 0.102717 0.0124852 0.825978
147 1 0.294406 0.113494 0.76404
211 1 0.465812 0.0972206 0.760696
344 2 0.264172 0.0703339 0.932676
176 1 0.302231 0.188186 0.896246
193 1 0.462426 0.160338 0.910904
223 1 0.418996 0.244691 0.79611
208 1 0.387412 0.0257221 0.887192
353 2 0.748804 0.134009 0.768902
217 1 0.593064 0.195869 0.980611
2 1 0.547573 0.0303515 0.888796
235 1 0.688487 0.105683 0.886309
78 1 0.582682 0.19006 0.815811
96 1 0.619664 0.0179738 0.755473
181 1 0.801533 0.00722349 0.940618
205 1 0.861095 0.117349 0.848272
251 1 0.834608 0.249955 0.76281
305 2 0.201438 0.256833 0.822629
137 1 0.2438 0.485622 0.849528
265 1 0.177939 0.273269 0.944579
8 1 0.156786 0.369065 0.782443
28 1 0.0805052 0.398186 0.924019
336 2 0.217072 0.408144 0.947003
295 2 0.109103 0.489577 0.829385
212 1 0.402271 0.41335 0.949243
343 2 0.397575 0.277334 0.919217
288 1 0.304307 0.343627 0.863475
210 1 0.455082 0.390847 0.778071
154 1 0.542658 0.479779 0.939123
293 2 0.745849 0.342888 0.759065
267 1 0.615333 0.367404 0.753355
143 1 0.693035 0.27797 0.872404
172 1 0.679779 0.428007 0.888093
77 1 0.531888 0.327307 0.899317
128 1 0.713642 0.490446 0.751475
246 1 0.83841 0.387065 0.845342
269 1 0.900592 0.259982 0.913601
276 1 0.974992 0.348374 0.806072
48 1 0.919044 0.405529 0.978023
19 1 0.769519 0.352479 0.9909
152 1 0.173248 0.630959 0.226598
214 1 0.0820396 0.636983 0.0876014
314 2 0.202196 0.59173 0.101744
67 1 0.214902 0.71864 0.0576825
118 1 0.00234076 0.703329 0.216385
23 1 0.0755319 0.511164 0.187812
250 1 0.160043 0.52016 0.000206862
98 1 0.433842 0.570692 0.0115739
65 1 0.317276 0.6356 0.158689
80 1 0.453982 0.698189 0.179071
145 1 0.49112 0.708536 0.0235097
73 1 0.413413 0.50075 0.158326
349 2 0.525806 0.591734 0.126421
236 1 0.609849 0.67352 0.183709
310 2 0.644915 0.741731 0.0780502
178 1 0.748161 0.73933 0.142654
83 1 0.613198 0.621734 0.0441577
139 1 0.751027 0.574833 0.151129
233 1 0.884904 0.663556 0.0715372
213 1 0.905531 0.555161 0.176998
331 2 0.825412 0.544868 0.054076
133 1 0.85069 0.688707 0.232095
130 1 0.966774 0.539987 0.0345274
18 1 0.751794 0.645816 0.00290737
22 1 0.128824 0.792266 0.15587
138 1 0.0802475 0.942242 0.0944632
315 2 0.181255 0.905032 0.175439
167 1 0.210274 0.883245 0.0507078
273 1 0.048154 0.904432 0.245638
1 1 0.25615 0.769189 0.235622
186 1 0.35163 0.774549 0.0877332
21 1 0.306278 0.903706 0.19131
132 1 0.440591 0.938899 0.127078
345 2 0.584892 0.960984 0.127797
129 1 0.53838 0.814487 0.141404
146 1 0.674274 0.866433 0.0905782
60 1 0.666527 0.827448 0.23841
42 1 0.540708 0.893561 2.32143e-06
323 2 0.777638 0.910301 0.0350948
292 2 0.887176 0.76529 0.149376
254 1 0.80813 0.885856 0.157739
175 1 0.993094 0.816128 0.0962438
30 1 0.829806 0.800317 0.0205001
335 2 0.925127 0.927667 0.170324
115 1 0.914074 0.947202 0.0348337
329 2 0.223663 0.555782 0.316458
234 1 0.0643949 0.614977 0.322436
277 1 0.15201 0.56745 0.449752
359 2 0.117738 0.698099 0.415377
110 1 0.0150924 0.630428 0.482409
307 2 0.34963 0.692876 0.280198
281 1 0.25342 0.676536 0.3703
53 1 0.477028 0.558931 0.441959
24 1 0.353378 0.565016 0.289526
112 1 0.41659 0.692982 0.398262
247 1 0.315085 0.553382 0.451347
240 1 0.512942 0.57937 0.276758
227 1 0.659341 0.536952 0.261626
122 1 0.620332 0.60355 0.389138
107 1 0.714948 0.679717 0.287622
32 1 0.544215 0.73245 0.311413
64 1 0.767827 0.55754 0.380611
166 1 0.980942 0.736399 0.374258
296 2 0.810945 0.575752 0.265889
72 1 0.9166 0.588003 0.340824
179 1 0.831345 0.716223 0.397841
101 1 0.868092 0.589011 0.498001
15 1 0.125804 0.765329 0.30562
136 1 0.0600678 0.852256 0.4265
155 1 0.207192 0.805746 0.432021
230 1 0.197478 0.904373 0.313603
190 1 0.186465 0.957344 0.461352
318 2 0.0514164 0.984444 0.499731
93 1 0.487912 0.833536 0.409284
203 1 0.402194 0.818872 0.277609
289 2 0.319328 0.782789 0.370892
268 1 0.335236 0.920038 0.380626
113 1 0.345042 0.788484 0.494905
311 2 0.535145 0.993315 0.481044
36 1 0.540652 0.925217 0.258489
76 1 0.661909 0.778392 0.396955
45 1 0.618399 0.936835 0.382664
342 2 0.71714 0.877716 0.455972
356 2 0.794026 0.786851 0.293492
197 1 0.90978 0.833307 0.265657
171 1 0.820615 0.957042 0.447011
95 1 0.758769 0.901148 0.325667
341 2 0.883951 0.846874 0.422332
66 1 0.950452 0.948483 0.367065
75 1 0.172072 0.683762 0.66659
308 2 0.119654 0.602564 0.56663
70 1 0.239887 0.522855 0.583565
140 1 0.0767476 0.743548 0.562156
123 1 0.163819 0.502062 0.71108
283 1 0.232046 0.67509 0.522999
25 1 0.482155 0.613334 0.687712
168 1 0.319943 0.562009 0.718739
192 1 0.411834 0.651469 0.5519
20 1 0.321811 0.711714 0.674781
346 2 0.520974 0.572018 0.564337
284 1 0.629749 0.589319 0.652337
338 2 0.557002 0.718656 0.664218
12 1 0.569186 0.688849 0.511136
262 1 0.736864 0.672951 0.505365
189 1 0.634371 0.528809 0.514573
191 1 0.976934 0.633445 0.632675
206 1 0.777277 0.558697 0.616084
280 1 0.830784 0.711156 0.642824
291 2 0.111337 0.80446 0.680842
182 1 0.110264 0.925785 0.604268
319 2 0.204961 0.89986 0.709754
253 1 0.216077 0.817807 0.605028
243 1 0.248166 0.984665 0.641555
149 1 0.470757 0.786112 0.575004
50 1 0.347422 0.870487 0.674912
334 2 0.471343 0.90532 0.623736
156 1 0.416692 0.93013 0.516793
196 1 0.456696 0.770175 0.735491
300 2 0.289399 0.907782 0.550413
301 2 0.346753 0.976737 0.738424
153 1 0.469526 0.9424 0.747114
245 1 0.667978 0.765934 0.616541
57 1 0.598494 0.870741 0.523765
63 1 0.572143 0.848824 0.686372
44 1 0.703539 0.921076 0.647494
242 1 0.553078 0.995047 0.613176
278 1 0.833394 0.989037 0.588408
82 1 0.922525 0.750183 0.510277
150 1 0.987061 0.803716 0.663388
52 1 0.960192 0.909552 0.535266
328 2 0.995223 0.926044 0.656049
89 1 0.852057 0.8534 0.708616
135 1 0.811442 0.842967 0.550425
62 1 0.0568936 0.620762 0.765443
148 1 0.221434 0.646599 0.815396
320 2 0.168302 0.696249 0.928374
165 1 0.0726009 0.624687 0.91134
297 2 0.00241951 0.693312 0.998595
351 2 0.355191 0.701055 0.983155
35 1 0.293393 0.591544 0.948227
209 1 0.367204 0.673657 0.834042
59 1 0.411502 0.532623 0.839433
238 1 0.735827 0.64549 0.756132
3 1 0.516664 0.634048 0.891043
90 1 0.559891 0.50265 0.785144
27 1 0.599112 0.718084 0.794044
221 1 0.653957 0.586494 0.867313
312 2 0.793641 0.615713 0.860086
108 1 0.860845 0.545204 0.755268
100 1 0.776175 0.737624 0.875246
195 1 0.90068 0.705526 0.770634
244 1 0.914307 0.637631 0.911767
224 1 0.985401 0.511087 0.87147
282 1 0.826234 0.514677 0.927366
31 1 0.0853419 0.906332 0.756214
264 1 0.110847 0.802224 0.974458
16 1 0.21901 0.798902 0.775064
219 1 0.0805956 0.762324 0.830439
313 2 0.154258 0.877618 0.85751
162 1 0.0312709 0.924866 0.898379
257 1 0.229632 0.978222 0.811707
33 1 0.155446 0.990125 0.948937
142 1 0.387723 0.878522 0.981631
340 2 0.464916 0.92484 0.88942
38 1 0.266692 0.776936 0.924672
92 1 0.354064 0.884279 0.826838
354 2 0.269192 0.923362 0.937746
216 1 0.470992 0.78701 0.894373
41 1 0.614787 0.760256 0.945874
40 1 0.582805 0.881655 0.848461
200 1 0.716612 0.879197 0.925639
327 2 0.668305 0.981008 0.871739
202 1 0.7072 0.824655 0.766847
39 1 0.76875 0.987199 0.777092
106 1 0.946722 0.988779 0.759381
255 1 0.858712 0.878227 0.861046
337 2 0.955365 0.824862 0.788055
56 1 0.9639 0.78879 0.928884
326 2 0.907641 0.997162 0.888793
ITEM: TIMESTEP
3000000
ITEM: NUMBER OF ATOMS
360
ITEM: BOX BOUNDS pp pp pp
0.0000000000000000e+00 6.6943295008216896e+00
0.0000000000000000e+00 6.6943295008216896e+00
0.0000000000000000e+00 6.6943295008216896e+00
ITEM: ATOMS id type xs ys zs
230 1 0.109421 0.0629997 0.108917
99 1 0.0788832 0.206614 0.0833865
5 1 0.0807361 0.155244 0.227426
61 1 0.228107 0.174036 0.150685
274 1 0.35112 0.0843389 0.16354
199 1 0.358947 0.219612 0.237527
176 1 0.371851 0.163072 0.0262443
212 1 0.295598 0.452192 0.0197469
21 1 0.240236 0.0712568 0.0288669
265 1 0.491316 0.186454 0.131943
19 1 0.690431 0.0770215 0.126575
217 1 0.647524 0.223916 0.066866
201 1 0.638464 0.196014 0.217969
107 1 0.740135 0.497703 0.152982
47 1 0.514671 0.0284394 0.111746
343 2 0.177424 0.494469 0.321784
46 1 0.969525 0.0352475 0.180829
159 1 0.93038 0.176239 0.150537
181 1 0.830611 0.0867884 0.0740941
74 1 0.777682 0.313039 0.407267
17 1 0.15543 0.310812 0.193145
86 1 0.132648 0.360561 0.0434862
248 1 0.0824522 0.454698 0.237288
79 1 0.00736468 0.320531 0.19492
257 1 0.979572 0.0315672 0.0261953
104 1 0.243025 0.447148 0.212668
121 1 0.276443 0.322461 0.113039
151 1 0.424253 0.323915 0.118287
314 2 0.360049 0.464581 0.13469
240 1 0.49655 0.466698 0.151411
272 1 0.804859 0.424345 0.301765
285 1 0.579727 0.333296 0.135039
310 2 0.624543 0.433694 0.183615
282 1 0.737554 0.364697 0.0717845
30 1 0.622905 0.479733 0.053249
234 1 0.694683 0.348205 0.24005
334 2 0.505687 0.43905 0.489986
161 1 0.773145 0.22377 0.149583
321 2 0.986143 0.438722 0.140288
328 2 0.875861 0.267585 0.0936967
87 1 0.975418 0.343949 0.0457903
233 1 0.85928 0.376923 0.156335
170 1 0.181066 0.031774 0.247991
136 1 0.0970379 0.122791 0.400913
186 1 0.195754 0.208568 0.313557
156 1 0.377937 0.0307241 0.450386
9 1 0.49404 0.0896851 0.25097
215 1 0.261399 0.14458 0.437155
45 1 0.327758 0.0758865 0.309351
13 1 0.425331 0.177094 0.3693
91 1 0.577774 0.202193 0.480545
173 1 0.538698 0.0650459 0.404264
294 2 0.561694 0.170271 0.337894
71 1 0.689752 0.131979 0.385008
51 1 0.646493 0.0468659 0.27075
187 1 0.509858 0.266551 0.266896
131 1 0.872061 0.267107 0.272497
129 1 0.797356 0.108105 0.252599
239 1 0.954483 0.0497935 0.452275
160 1 0.839945 0.167908 0.415578
103 1 0.954796 0.122857 0.315891
55 1 0.0598963 0.491003 0.398225
26 1 0.181794 0.431779 0.495852
188 1 0.0180774 0.262911 0.353709
339 2 0.42922 0.00852807 0.33215
37 1 0.0284205 0.360384 0.481986
81 1 0.183389 0.27363 0.487723
249 1 0.154939 0.362837 0.353032
329 2 0.282997 0.316895 0.243979
116 1 0.406014 0.382253 0.268596
225 1 0.320824 0.301318 0.368053
198 1 0.470931 0.337196 0.419723
184 1 0.285547 0.449042 0.357937
85 1 0.598686 0.493541 0.424735
330 2 0.754232 0.225246 0.304556
190 1 0.823342 0.00968921 0.379969
73 1 0.636589 0.274668 0.353529
296 2 0.686941 0.413077 0.362428
139 1 0.552993 0.406378 0.302687
101 1 0.867644 0.427532 0.4629
125 1 0.958406 0.398046 0.329816
318 2 0.908553 0.301379 0.404408
134 1 0.3393 0.3966 0.490841
164 1 0.0015923 0.197193 0.489281
319 2 0.464349 0.142366 0.482791
344 2 0.720348 0.123678 0.00366995
355 2 0.124161 0.118233 0.687719
258 1 0.163777 0.107826 0.549265
359 2 0.0150205 0.0702282 0.559375
52 1 0.00826967 0.15197 0.655798
92 1 0.447057 0.00446996 0.8201
3 1 0.465751 0.417509 0.994933
293 2 0.262926 0.210399 0.576723
278 1 0.264926 0.148032 0.719934
111 1 0.342828 0.110916 0.579664
223 1 0.42057 0.123131 0.726231
6 1 0.366647 0.249856 0.502568
242 1 0.494476 0.196101 0.604354
174 1 0.623662 0.495595 0.755991
279 1 0.748602 0.0646602 0.510423
194 1 0.499042 0.0450968 0.562847
271 1 0.641687 0.118719 0.617856
208 1 0.547312 0.0558192 0.720046
345 2 0.262319 0.03118 0.519441
207 1 0.826897 0.264958 0.839669
241 1 0.786682 0.0144278 0.651561
350 2 0.769474 0.158996 0.64923
58 1 0.872646 0.131771 0.570928
206 1 0.880462 0.229999 0.693901
54 1 0.755222 0.381603 0.558799
94 1 0.139407 0.235332 0.640569
305 2 0.227181 0.274285 0.720814
28 1 0.130967 0.431549 0.637995
316 2 0.00748754 0.436641 0.685992
168 1 0.360556 0.260095 0.670039
163 1 0.248665 0.338048 0.606245
267 1 0.400812 0.40881 0.707119
70 1 0.471817 0.354938 0.58461
332 2 0.486464 0.306422 0.70391
97 1 0.23708 0.411169 0.743129
166 1 0.944702 0.496404 0.789256
119 1 0.732577 0.219504 0.525051
303 2 0.607598 0.250953 0.590719
287 1 0.607784 0.366101 0.666006
43 1 0.743617 0.282937 0.691102
68 1 0.00312327 0.31947 0.631098
300 2 0.729282 0.418543 0.684918
331 2 0.513382 0.464253 0.673134
127 1 0.884797 0.289384 0.53561
185 1 0.882066 0.428821 0.637851
238 1 0.603788 0.489473 0.577622
147 1 0.0401681 0.0409887 0.80241
232 1 0.0931562 0.123533 0.954612
88 1 0.158623 0.174187 0.820651
298 2 0.224785 0.0966488 0.89838
8 1 0.181742 0.0158553 0.793864
349 2 0.319852 0.0345232 0.767189
193 1 0.338807 0.149146 0.871764
263 1 0.499869 0.247754 0.988407
157 1 0.754367 0.150987 0.773451
235 1 0.603513 0.206658 0.745073
180 1 0.519803 0.142119 0.864058
260 1 0.649014 0.0624151 0.849586
143 1 0.678463 0.197632 0.89511
286 1 0.901718 0.0662568 0.743402
84 1 0.984142 0.187411 0.816125
354 2 0.971428 0.086804 0.919261
204 1 0.838354 0.107974 0.905744
229 1 0.954858 0.203356 0.987415
275 1 0.42935 0.0284216 0.977864
250 1 0.0871804 0.467628 0.797199
269 1 0.109306 0.308008 0.767432
141 1 0.0699404 0.28355 0.913801
29 1 0.194788 0.401731 0.89724
105 1 0.281516 0.290794 0.834658
78 1 0.431127 0.260254 0.806542
25 1 0.366212 0.433518 0.863551
77 1 0.36208 0.300015 0.965754
123 1 0.286682 0.489718 0.622539
289 2 0.575694 0.262119 0.869008
276 1 0.666854 0.336598 0.81652
33 1 0.98849 0.411256 0.909759
98 1 0.605217 0.350623 0.967789
228 1 0.523109 0.373934 0.810969
317 2 0.724178 0.323553 0.930673
90 1 0.705788 0.456268 0.900972
237 1 0.95067 0.344406 0.768323
312 2 0.943409 0.293509 0.892374
34 1 0.841828 0.383142 0.963358
195 1 0.806934 0.409722 0.790313
288 1 0.220823 0.212496 0.981141
335 2 0.691751 0.0427099 0.729089
256 1 0.607848 0.35152 0.500869
96 1 0.599897 0.0887244 0.995486
311 2 0.617165 0.0635511 0.504462
251 1 0.796153 0.236194 0.999165
126 1 0.17295 0.525954 0.10127
165 1 0.101504 0.656565 0.0226836
213 1 0.0285968 0.580002 0.144894
65 1 0.190876 0.716155 0.1495
264 1 0.158353 0.605324 0.260743
67 1 0.0252449 0.735985 0.18605
347 2 0.259901 0.578933 0.190758
59 1 0.339491 0.591402 0.0991677
112 1 0.455652 0.663474 0.162907
307 2 0.321312 0.722536 0.13925
83 1 0.48579 0.568419 0.0334272
133 1 0.622148 0.613425 0.14436
146 1 0.732159 0.711279 0.0999179
244 1 0.753226 0.558332 0.00247729
254 1 0.875629 0.646351 0.158247
356 2 0.0285275 0.749682 0.0597342
145 1 0.428485 0.708622 0.0108605
262 1 0.676873 0.802444 0.489779
122 1 0.672497 0.517101 0.290693
323 2 0.132426 0.839897 0.148784
144 1 0.206645 0.943942 0.120681
309 2 0.082494 0.953044 0.0472794
22 1 0.0193602 0.893151 0.139469
167 1 0.129946 0.827039 0.0218864
66 1 0.900609 0.9264 0.271039
231 1 0.537055 0.779507 0.396839
259 1 0.671639 0.959742 0.423374
322 2 0.298199 0.971385 0.217825
24 1 0.286428 0.825995 0.204686
32 1 0.426126 0.81209 0.131234
1 1 0.348059 0.954536 0.0770699
36 1 0.434164 0.942215 0.215032
333 2 0.500052 0.902919 0.0922668
236 1 0.579862 0.765273 0.0787007
357 2 0.65863 0.797182 0.173189
158 1 0.605097 0.919244 0.183313
114 1 0.719091 0.874209 0.0876389
352 2 0.634474 0.976022 0.0701313
218 1 0.653814 0.839021 0.313378
49 1 0.762748 0.960803 0.230639
325 2 0.927926 0.822411 0.198364
18 1 0.796335 0.814564 0.204925
273 1 0.891429 0.783284 0.0864151
11 1 0.865651 0.931422 0.112194
304 2 0.813443 0.785541 0.490563
308 2 0.179889 0.712451 0.474466
183 1 0.0597748 0.640391 0.4684
4 1 0.187525 0.580404 0.415096
175 1 0.126102 0.732298 0.348903
118 1 0.0110329 0.621307 0.299217
171 1 0.952022 0.888168 0.44142
192 1 0.390458 0.541572 0.248296
277 1 0.306658 0.674004 0.264431
148 1 0.299405 0.703761 0.412797
346 2 0.318579 0.582664 0.353286
253 1 0.433084 0.653232 0.380421
247 1 0.320259 0.554809 0.482697
60 1 0.700849 0.700382 0.258633
53 1 0.529902 0.625139 0.496657
132 1 0.558112 0.744962 0.245778
227 1 0.541605 0.576349 0.269937
178 1 0.626928 0.64081 0.3761
93 1 0.536607 0.933677 0.318827
95 1 0.873873 0.721579 0.28819
14 1 0.760982 0.530128 0.448898
64 1 0.767707 0.701387 0.40686
189 1 0.922563 0.570342 0.407545
23 1 0.801168 0.590049 0.300139
179 1 0.934725 0.722877 0.436147
283 1 0.0706939 0.795698 0.475123
197 1 0.00565161 0.82284 0.312253
302 2 0.106212 0.900351 0.386506
220 1 0.155126 0.885314 0.271079
15 1 0.217504 0.8311 0.419536
57 1 0.809976 0.857271 0.363027
177 1 0.440565 0.50489 0.399513
20 1 0.295292 0.807786 0.04894
113 1 0.40571 0.832316 0.455783
152 1 0.329643 0.926572 0.34953
203 1 0.413063 0.794054 0.299547
297 2 0.0786283 0.977398 0.201166
50 1 0.538327 0.910135 0.490475
243 1 0.0886751 0.964126 0.495241
100 1 0.945313 0.645088 0.0205004
169 1 0.892997 0.505342 0.0696915
117 1 0.200603 1.00021 0.404379
222 1 0.0390212 0.99484 0.322434
261 1 0.906575 0.507813 0.231741
138 1 0.0413265 0.500642 0.0139796
270 1 0.0527364 0.57864 0.70015
72 1 0.0802632 0.732072 0.617959
130 1 0.163429 0.580622 0.571722
75 1 0.185607 0.653863 0.699024
336 2 0.179677 0.530268 0.693207
102 1 0.246942 0.739094 0.583612
353 2 0.27424 0.617149 0.614755
110 1 0.381318 0.603155 0.683729
290 2 0.451063 0.724989 0.662825
7 1 0.395828 0.68766 0.542382
108 1 0.999602 0.501882 0.556929
115 1 0.827383 0.855105 0.947461
196 1 0.532634 0.605163 0.653601
27 1 0.667174 0.659278 0.675048
202 1 0.680383 0.649133 0.528086
153 1 0.542405 0.755769 0.574059
76 1 0.800038 0.89802 0.516558
124 1 0.750641 0.531869 0.618443
182 1 0.0729787 0.997253 0.640165
341 2 0.956383 0.676925 0.575901
221 1 0.830648 0.651106 0.541352
89 1 0.914433 0.72977 0.693413
266 1 0.896526 0.572297 0.678302
358 2 0.804653 0.656354 0.668604
140 1 0.166744 0.866753 0.588107
291 2 0.0278334 0.885627 0.57769
191 1 0.0201067 0.851025 0.700901
281 1 0.17872 0.808257 0.739517
301 2 0.127553 0.923435 0.724507
313 2 0.792454 0.844124 0.829347
226 1 0.320278 0.746044 0.72507
348 2 0.309725 0.854832 0.660019
155 1 0.420679 0.834892 0.610128
324 2 0.424143 0.938419 0.53425
268 1 0.301094 0.903716 0.535864
69 1 0.394612 0.970857 0.675248
211 1 0.66286 0.959851 0.577004
360 2 0.65194 0.832652 0.618336
2 1 0.542512 0.914989 0.660532
135 1 0.698987 0.890354 0.726128
63 1 0.574205 0.782054 0.738487
41 1 0.598336 0.893179 0.980952
162 1 0.976618 0.878351 0.990436
128 1 0.777885 0.775215 0.615099
82 1 0.919243 0.962139 0.593309
280 1 0.929993 0.808137 0.567507
106 1 0.853305 0.878283 0.707719
337 2 0.977129 0.962558 0.717605
62 1 0.0465841 0.710652 0.768969
292 2 0.138581 0.591203 0.802098
219 1 0.164022 0.697605 0.868171
224 1 0.0350636 0.585153 0.888958
214 1 0.189209 0.550495 0.920588
210 1 0.438943 0.50758 0.573439
48 1 0.284014 0.613977 0.809897
142 1 0.348084 0.754548 0.884005
154 1 0.38585 0.577306 0.920154
137 1 0.454973 0.682197 0.799999
284 1 0.472205 0.528439 0.785634
150 1 0.916123 0.811268 0.828169
306 2 0.68254 0.773133 0.999426
351 2 0.507869 0.631732 0.932146
109 1 0.568443 0.523804 0.905158
209 1 0.615764 0.662483 0.819682
56 1 0.631731 0.653083 0.984636
326 2 0.688723 0.584517 0.886296
44 1 0.772079 0.727852 0.773198
246 1 0.764551 0.570606 0.777911
200 1 0.779487 0.697282 0.926731
255 1 0.918706 0.668569 0.842009
172 1 0.872826 0.540043 0.920152
320 2 0.330312 0.509162 0.750886
120 1 0.131399 0.97963 0.933006
39 1 0.0271368 0.752362 0.925367
16 1 0.0645886 0.877201 0.84574
38 1 0.217776 0.842228 0.88287
42 1 0.29106 0.995356 0.911339
12 1 0.290314 0.90473 0.783093
327 2 0.367551 0.896114 0.882333
149 1 0.434977 0.842307 0.772477
80 1 0.433241 0.867953 0.990054
252 1 0.787466 0.97844 0.817608
295 2 0.8934 0.747733 0.95989
299 2 0.684087 0.930196 0.891065
216 1 0.524747 0.773026 0.90319
245 1 0.582031 0.918143 0.814913
40 1 0.671595 0.801549 0.86547
31 1 0.923108 0.973671 0.873184
342 2 0.873228 0.527632 0.541663
340 2 0.54453 0.998666 0.914649
315 2 0.868017 0.968281 0.995995
35 1 0.259394 0.669134 0.98711
10 1 0.229877 0.993093 0.644851
205 1 0.744231 0.994469 0.982402
338 2 0.238768 0.903894 0.992483
ITEM: TIMESTEP
6000000
ITEM: NUMBER OF ATOMS
360
ITEM: BOX BOUNDS pp pp pp
0.0000000000000000e+00 6.6943295008216896e+00
0.0000000000000000e+00 6.6943295008216896e+00
0.0000000000000000e+00 6.6943295008216896e+00
ITEM: ATOMS id type xs ys zs
313 2 0.138937 0.151762 0.0789384
5 1 0.0840434 0.104501 0.191493
61 1 0.209553 0.218739 0.171273
159 1 0.00985357 0.108945 0.048639
170 1 0.22676 0.0518455 0.200206
139 1 0.439965 0.484639 0.367734
288 1 0.269458 0.12089 0.0598847
176 1 0.415291 0.114321 0.0372127
225 1 0.384437 0.221354 0.133164
173 1 0.385603 0.0866803 0.197493
19 1 0.537174 0.154776 0.126436
265 1 0.688377 0.169273 0.10584
71 1 0.63984 0.0237459 0.143558
259 1 0.522837 0.0315292 0.25639
335 2 0.759427 0.00978281 0.193493
239 1 0.943199 0.0266985 0.170083
181 1 0.817723 0.0979756 0.12253
87 1 0.939595 0.183618 0.17861
161 1 0.792614 0.22723 0.229877
344 2 0.942807 0.246064 0.0420072
138 1 0.0637713 0.265115 0.111126
105 1 0.198184 0.252201 0.0144599
312 2 0.13861 0.308009 0.206643
104 1 0.181923 0.395707 0.10499
248 1 0.0472026 0.43811 0.176431
346 2 0.468364 0.251074 0.0373346
295 2 0.299236 0.294543 0.0826848
116 1 0.399076 0.374884 0.1041
264 1 0.299903 0.329856 0.211595
318 2 0.477632 0.302631 0.184943
317 2 0.829408 0.156917 0.494678
300 2 0.364746 0.432246 0.258184
351 2 0.501016 0.476978 0.101292
83 1 0.507693 0.416185 0.219163
98 1 0.550606 0.331319 0.0876849
23 1 0.634921 0.449553 0.118844
77 1 0.643257 0.276177 0.206399
43 1 0.834579 0.330155 0.494028
86 1 0.996252 0.38776 0.0351007
164 1 0.9389 0.339608 0.370354
204 1 0.822164 0.251325 0.084429
214 1 0.834281 0.408811 0.0315961
233 1 0.760923 0.378187 0.175315
169 1 0.905232 0.334336 0.19515
136 1 0.100243 0.0943155 0.358174
302 2 0.193214 0.148807 0.276795
152 1 0.206772 0.179585 0.446271
45 1 0.411124 0.0514562 0.353701
163 1 0.197466 0.32577 0.490884
117 1 0.252084 0.0444213 0.352803
111 1 0.342389 0.122905 0.473999
215 1 0.333958 0.199753 0.312984
228 1 0.696521 0.328315 0.0327716
9 1 0.455727 0.234317 0.420564
113 1 0.511651 0.205763 0.269027
240 1 0.679243 0.123821 0.264453
339 2 0.680767 0.206685 0.473679
272 1 0.572877 0.0983437 0.380066
234 1 0.728451 0.105311 0.417104
293 2 0.991665 0.109387 0.280522
319 2 0.00513315 0.0598725 0.436881
337 2 0.926044 0.235533 0.294415
151 1 0.813765 0.225626 0.380473
258 1 0.880775 0.0448168 0.461024
131 1 0.852112 0.0937537 0.286133
127 1 0.959871 0.171388 0.403886
206 1 0.922564 0.462762 0.472723
79 1 0.0508546 0.236117 0.290752
103 1 0.0702039 0.275446 0.432531
359 2 0.0139712 0.369997 0.274415
55 1 0.166941 0.424201 0.268395
188 1 0.200174 0.281018 0.331753
108 1 0.061855 0.425073 0.386671
192 1 0.291348 0.401677 0.376944
355 2 0.31411 0.283506 0.405666
2 1 0.476714 0.0300493 0.483196
249 1 0.419186 0.328837 0.307097
184 1 0.405629 0.38047 0.46882
121 1 0.300356 0.482152 0.152648
101 1 0.682768 0.415086 0.429676
13 1 0.655581 0.261841 0.361357
73 1 0.543281 0.376801 0.37399
100 1 0.651046 0.425744 0.269898
30 1 0.917465 0.45934 0.281658
221 1 0.792712 0.371641 0.324851
224 1 0.89883 0.499776 0.130842
68 1 0.169606 0.0261341 0.490856
229 1 0.897928 0.00553872 0.00182483
22 1 0.144882 0.0132666 0.0609801
147 1 0.204573 0.190132 0.602673
31 1 0.111371 0.0417621 0.674137
352 2 0.155032 0.234122 0.73384
182 1 0.07154 0.151799 0.536845
40 1 0.0395942 0.235044 0.678541
156 1 0.28605 0.0572926 0.605913
81 1 0.433546 0.143466 0.591448
298 2 0.330917 0.163425 0.659727
37 1 0.319947 0.264391 0.543597
168 1 0.439223 0.23146 0.73345
91 1 0.598061 0.117714 0.548584
279 1 0.699779 0.13145 0.694968
208 1 0.526194 0.091771 0.696262
160 1 0.753674 0.213016 0.585691
58 1 0.745986 0.0439833 0.560684
39 1 0.569892 0.488633 0.870411
106 1 0.913337 0.117848 0.579726
360 2 0.827426 0.143743 0.678656
243 1 0.947692 0.102207 0.724777
44 1 0.802878 0.017802 0.710212
345 2 0.99552 0.0209142 0.627951
110 1 0.0733163 0.473256 0.689816
342 2 0.100219 0.267195 0.556473
48 1 0.158244 0.341152 0.650562
28 1 0.0515028 0.402389 0.543796
123 1 0.187548 0.479184 0.580055
320 2 0.0297499 0.350534 0.66674
356 2 0.242672 0.456878 0.694985
84 1 0.901112 0.307052 0.933532
267 1 0.277881 0.276407 0.721821
94 1 0.314074 0.403231 0.605381
354 2 0.388896 0.345629 0.712424
6 1 0.467734 0.31862 0.611169
70 1 0.450394 0.477108 0.587086
78 1 0.362406 0.460417 0.746834
334 2 0.546811 0.406915 0.663186
198 1 0.601675 0.250063 0.648532
187 1 0.594101 0.439601 0.557888
174 1 0.63966 0.412078 0.738856
33 1 0.934576 0.473993 0.911416
141 1 0.731674 0.286384 0.765285
96 1 0.576204 0.0397408 0.998013
242 1 0.719894 0.3599 0.599148
257 1 0.880283 0.26676 0.692063
52 1 0.963532 0.270579 0.558401
185 1 0.919859 0.411209 0.631681
237 1 0.802365 0.467304 0.714486
278 1 0.52229 0.0126464 0.836973
140 1 0.227198 0.119427 0.74567
252 1 0.0935873 0.157494 0.818642
46 1 0.141031 0.122945 0.95345
99 1 0.0476629 0.247565 0.95053
303 2 0.594792 0.404176 0.981231
12 1 0.374011 0.0858617 0.775441
8 1 0.297068 0.1155 0.896291
193 1 0.467204 0.158035 0.897654
292 2 0.359101 0.229863 0.83789
17 1 0.360531 0.257105 0.973721
217 1 0.612292 0.197598 0.974954
157 1 0.657616 0.0974016 0.847508
287 1 0.581841 0.223108 0.801126
207 1 0.759622 0.24244 0.918865
323 2 0.0419142 0.0291415 0.776722
285 1 0.744389 0.0740436 0.974871
162 1 0.968349 0.0786507 0.875946
271 1 0.813372 0.155518 0.811653
286 1 0.958403 0.232169 0.81084
232 1 0.871615 0.158228 0.974135
256 1 0.585412 0.2922 0.495797
16 1 0.217087 0.245882 0.867558
97 1 0.0948058 0.32655 0.805077
210 1 0.231563 0.404916 0.823187
212 1 0.138344 0.381657 0.953317
88 1 0.0829179 0.481151 0.840155
289 2 0.0126068 0.371314 0.905973
199 1 0.286534 0.397148 0.991987
310 2 0.446785 0.480984 0.833434
251 1 0.46231 0.442338 0.972925
29 1 0.374713 0.361819 0.863036
276 1 0.513142 0.308307 0.930705
269 1 0.94562 0.37529 0.781533
34 1 0.791822 0.399719 0.874751
235 1 0.499026 0.358784 0.772187
109 1 0.650424 0.351338 0.875062
321 2 0.690835 0.478975 0.836833