ITEM: TIMESTEP
0
ITEM: NUMBER OF ATOMS
360
ITEM: BOX BOUNDS pp pp pp
0.0000000000000000e+00 6.6943295008216896e+00
0.0000000000000000e+00 6.6943295008216896e+00
0.0000000000000000e+00 6.6943295008216896e+00
ITEM: ATOMS id type xs ys zs
122 1 0.199287 0.0934834 0.131421
94 1 0.0229826 0.108486 0.190718
92 1 0.112122 0.233839 0.144957
319 2 0.137283 0.120609 0.244784
284 1 0.247456 0.199155 0.226484
125 1 0.0890046 0.117535 0.0389856
326 2 0.00354416 0.2447 0.220088
17 1 0.219458 0.191954 0.0293085
347 2 0.0444773 0.0109221 0.10531
356 2 0.325264 0.106895 0.179939
59 1 0.347564 0.119031 0.0468194
133 1 0.425799 0.186248 0.209353
247 1 0.4739 0.0275528 0.113669
320 2 0.424137 0.223873 0.0801929
197 1 0.620355 0.0476741 0.079292
261 1 0.551324 0.214266 0.105594
173 1 0.690559 0.160697 0.170921
146 1 0.560129 0.0964857 0.221944
325 2 0.540745 0.248341 0.228225
351 2 0.631471 0.158817 0.0194846
305 2 0.986846 0.205482 0.0474311
3 1 0.881198 0.182674 0.173163
267 1 0.789573 0.0382168 0.160409
142 1 0.94079 0.0893811 0.0630476
14 1 0.755132 0.120201 0.0380461
289 2 0.791638 0.151478 0.24499
154 1 0.862903 0.246381 0.0368274
44 1 0.176476 0.364965 0.0660854
193 1 0.0820696 0.382411 0.213809
323 2 0.205808 0.317042 0.223283
123 1 0.240757 0.437356 0.198554
134 1 0.0552914 0.474423 0.0756634
262 1 0.313268 0.286637 0.126679
97 1 0.458155 0.323365 0.159504
198 1 0.341096 0.431404 0.0674431
202 1 0.39413 0.46307 0.216379
298 2 0.684069 0.406276 0.244776
250 1 0.647538 0.303668 0.196043
192 1 0.572223 0.3773 0.0592695
1 1 0.668781 0.488764 0.136624
258 1 0.699372 0.272433 0.0454049
353 2 0.697749 0.413996 0.0284667
228 1 0.993059 0.331451 0.0694881
33 1 0.772178 0.368042 0.131305
128 1 0.917112 0.345296 0.21137
223 1 0.899178 0.447522 0.0907399
238 1 0.042653 0.0874576 0.332848
161 1 0.191097 0.139582 0.384458
32 1 0.0308677 0.211178 0.43705
27 1 0.245097 0.0407755 0.261645
259 1 0.104028 0.246097 0.293199
50 1 0.10491 0.0719197 0.49448
88 1 0.411103 0.0350279 0.27609
331 2 0.412792 0.210899 0.456062
181 1 0.423529 0.0784869 0.42734
152 1 0.34154 0.171789 0.336811
300 2 0.287999 0.0567944 0.402979
60 1 0.287578 0.16059 0.493929
293 2 0.502491 0.155295 0.31847
72 1 0.564353 0.0452003 0.353182
287 1 0.668086 0.0901453 0.455323
169 1 0.707177 0.0591625 0.30081
22 1 0.539853 0.174372 0.449017
269 1 0.63171 0.210897 0.323351
66 1 0.687392 0.24995 0.459569
327 2 0.771074 0.0181663 0.406886
206 1 0.888428 0.067557 0.288964
49 1 0.930836 0.212627 0.315494
118 1 0.800281 0.16812 0.386544
231 1 0.939662 0.0693199 0.438877
309 2 0.230257 0.263482 0.343978
34 1 0.16333 0.285189 0.455145
234 1 0.0641468 0.428124 0.458641
6 1 0.167676 0.381191 0.338898
297 2 0.0724732 0.474278 0.337957
7 1 0.458153 0.266712 0.34728
160 1 0.32894 0.319648 0.272204
16 1 0.434431 0.414211 0.386538
174 1 0.311035 0.316291 0.432549
73 1 0.302478 0.477415 0.355824
291 2 0.358479 0.458628 0.473259
308 2 0.642074 0.405539 0.486819
165 1 0.544934 0.390349 0.27211
248 1 0.685257 0.372323 0.369648
126 1 0.556279 0.325269 0.446698
29 1 0.932425 0.487801 0.407653
19 1 0.825204 0.431458 0.294036
216 1 0.780982 0.279461 0.269545
83 1 0.857024 0.319895 0.39685
129 1 0.998817 0.353312 0.34599
137 1 0.765259 0.4986 0.435783
245 1 0.16216 0.184762 0.597971
38 1 0.0425911 0.106774 0.661192
294 2 0.178482 0.0434221 0.59704
183 1 0.192338 0.0927057 0.723489
345 2 0.289456 0.173599 0.643628
77 1 0.421339 0.157748 0.581579
166 1 0.375091 0.126294 0.734128
140 1 0.307922 0.0333478 0.615376
342 2 0.496554 0.135076 0.697694
74 1 0.461554 0.0202222 0.64652
282 1 0.577803 0.132723 0.593764
106 1 0.725572 0.0356307 0.635486
194 1 0.725001 0.198897 0.606497
61 1 0.633881 0.16266 0.73348
164 1 0.558337 0.0121959 0.511137
315 2 0.612611 0.0331506 0.691487
312 2 0.985419 0.123968 0.538948
155 1 0.998076 0.241762 0.606437
108 1 0.886673 0.137835 0.64788
148 1 0.811786 0.0674169 0.51709
204 1 0.938961 0.00881895 0.584066
203 1 0.878896 0.216733 0.509948
86 1 0.230519 0.250718 0.73915
31 1 0.221227 0.433266 0.500304
343 2 0.0992778 0.272444 0.687502
264 1 0.104558 0.361741 0.592027
103 1 0.106323 0.463231 0.712951
276 1 0.255978 0.416465 0.709654
162 1 0.38066 0.296235 0.695905
46 1 0.265413 0.29742 0.597009
87 1 0.421729 0.318289 0.528689
251 1 0.363534 0.454923 0.597762
346 2 0.479768 0.370388 0.654744
127 1 0.445513 0.469869 0.733292
337 2 0.526176 0.252599 0.549757
188 1 0.526828 0.261622 0.699745
132 1 0.521152 0.45732 0.56034
112 1 0.621096 0.333321 0.596142
210 1 0.577476 0.394912 0.730546
220 1 0.737984 0.42338 0.670713
82 1 0.97753 0.379448 0.703381
101 1 0.843288 0.299952 0.666659
336 2 0.865947 0.425076 0.662974
170 1 0.768778 0.366903 0.517053
201 1 0.930009 0.375752 0.540486
45 1 0.838327 0.497172 0.563411
214 1 0.100695 0.181151 0.809354
96 1 0.0669728 0.0562374 0.893011
301 2 0.152496 0.167338 0.920921
275 1 0.217329 0.0532787 0.961744
257 1 0.0740765 0.248936 0.966143
316 2 0.40155 0.00403474 0.770167
67 1 0.262063 0.147161 0.841812
145 1 0.396152 0.0417277 0.894582
236 1 0.365708 0.232832 0.943654
321 2 0.364346 0.243223 0.814007
209 1 0.489093 0.17266 0.827977
20 1 0.683744 0.0151649 0.797569
71 1 0.522686 0.0202514 0.789972
233 1 0.663898 0.148101 0.896008
302 2 0.57715 0.0520966 0.896631
36 1 0.500677 0.114255 0.990575
182 1 0.804394 0.248258 0.885246
156 1 0.946575 0.16523 0.913355
185 1 0.940766 0.0740121 0.78737
24 1 0.785639 0.135636 0.762024
310 2 0.934038 0.0362839 0.948278
81 1 0.824494 0.0764852 0.900297
196 1 0.94892 0.231273 0.772572
69 1 0.207046 0.28256 0.89211
76 1 0.0929094 0.336625 0.799324
37 1 0.0911408 0.41019 0.936797
355 2 0.193422 0.421171 0.828768
281 1 0.243341 0.449697 0.94517
70 1 0.415534 0.482532 0.918462
330 2 0.281747 0.319254 0.993211
41 1 0.322854 0.364964 0.837759
40 1 0.48371 0.338565 0.843599
115 1 0.44218 0.345003 0.993057
227 1 0.712997 0.493964 0.803177
340 2 0.602981 0.269355 0.813656
120 1 0.720589 0.289731 0.753245
172 1 0.566525 0.265803 0.950165
303 2 0.538165 0.426292 0.942696
260 1 0.649806 0.372474 0.889906
224 1 0.842172 0.403883 0.788802
176 1 0.991117 0.484072 0.820125
255 1 0.954368 0.343942 0.912053
178 1 0.80799 0.390056 0.962828
314 2 0.959439 0.452359 0.968357
286 1 0.0912959 0.644054 0.0521656
241 1 0.210293 0.537755 0.0782615
335 2 0.16548 0.636222 0.171926
102 1 0.0269991 0.662369 0.201601
249 1 0.11366 0.537621 0.232064
256 1 0.280239 0.67286 0.120831
2 1 0.421651 0.636646 0.17497
299 2 0.326377 0.538406 0.139595
30 1 0.421572 0.730966 0.0408163
144 1 0.354424 0.591062 0.0183962
244 1 0.479059 0.512467 0.0917298
273 1 0.578586 0.629474 0.0856305
332 2 0.704249 0.602418 0.0985778
124 1 0.687516 0.64372 0.226006
357 2 0.54166 0.661594 0.222355
10 1 0.555868 0.541095 0.225177
280 1 0.811885 0.684339 0.134481
270 1 0.932223 0.600107 0.107567
65 1 0.810736 0.535317 0.185829
116 1 0.782752 0.527371 0.0330473
9 1 0.960985 0.509764 0.234059
147 1 0.159617 0.771467 0.158541
274 1 0.170741 0.932446 0.0647134
268 1 0.0454267 0.880693 0.119058
138 1 0.233233 0.891294 0.24039
52 1 0.100799 0.983747 0.220931
168 1 0.104521 0.80383 0.00346036
307 2 0.40017 0.998018 0.0159993
296 2 0.378208 0.753087 0.159975
177 1 0.299627 0.838121 0.113157
180 1 0.436523 0.882906 0.0785039
252 1 0.386417 0.874313 0.24122
28 1 0.327942 0.98792 0.124648
90 1 0.512554 0.770687 0.156818
89 1 0.589822 0.896872 0.0914205
79 1 0.666685 0.764123 0.132626
39 1 0.685735 0.925726 0.201629
48 1 0.540977 0.935374 0.235933
290 2 0.720113 0.944181 0.0779237
143 1 0.574453 0.764346 0.00470414
246 1 0.8353 0.970158 0.0110321
113 1 0.961608 0.758769 0.0745867
208 1 0.813153 0.867318 0.125659
311 2 0.930804 0.881074 0.0507051
263 1 0.937969 0.812336 0.22637
200 1 0.925183 0.960563 0.172795
131 1 0.144852 0.681271 0.298309
111 1 0.161492 0.543856 0.395062
221 1 0.025269 0.599567 0.345269
313 2 0.00145343 0.727429 0.302507
4 1 0.0609949 0.742702 0.420908
358 2 0.0567231 0.561693 0.45939
68 1 0.268465 0.589025 0.260641
322 2 0.481784 0.668312 0.412333
141 1 0.299587 0.670806 0.381659
230 1 0.425363 0.579964 0.326378
139 1 0.466538 0.730586 0.30079
23 1 0.444076 0.550418 0.474945
285 1 0.687811 0.519961 0.303912
317 2 0.681482 0.584348 0.425495
277 1 0.592097 0.653852 0.345305
235 1 0.572244 0.507738 0.402644
211 1 0.764324 0.667819 0.365849
11 1 0.881058 0.680007 0.278632
171 1 0.906178 0.63502 0.446485
348 2 0.864197 0.55854 0.329578
51 1 0.155489 0.961761 0.365529
159 1 0.0351637 0.936777 0.463534
8 1 0.0837731 0.828529 0.278896
184 1 0.222654 0.809477 0.406653
80 1 0.291214 0.756533 0.261368
5 1 0.385713 0.801238 0.400351
265 1 0.314975 0.935448 0.375772
278 1 0.481659 0.930744 0.393629
225 1 0.643621 0.909273 0.375269
91 1 0.534395 0.7823 0.428943
136 1 0.619019 0.791575 0.282963
109 1 0.685907 0.769567 0.452848
304 2 0.587168 0.873297 0.489393
43 1 0.807636 0.948772 0.309031
75 1 0.917329 0.793968 0.383503
110 1 0.876651 0.928517 0.458487
318 2 0.775166 0.855475 0.406828
119 1 0.978344 0.935349 0.31564
85 1 0.776966 0.796334 0.269734
219 1 0.215527 0.60612 0.687534
175 1 0.0533738 0.606701 0.729
329 2 0.126418 0.684065 0.63157
55 1 0.0247342 0.658661 0.549856
272 1 0.13179 0.543859 0.565059
339 2 0.239418 0.508467 0.612363
121 1 0.194088 0.677687 0.50189
98 1 0.270735 0.743919 0.657325
150 1 0.36644 0.611887 0.661554
199 1 0.397808 0.698661 0.517436
350 2 0.476278 0.560947 0.607862
57 1 0.29489 0.573295 0.521609
105 1 0.411335 0.748927 0.74186
237 1 0.50061 0.680119 0.642323
328 2 0.663783 0.649797 0.618977
64 1 0.589219 0.555447 0.693823
18 1 0.749878 0.586157 0.682858
21 1 0.632348 0.713016 0.720045
62 1 0.672297 0.52785 0.558686
53 1 0.577408 0.641063 0.50074
54 1 0.761073 0.645102 0.531866
205 1 0.886391 0.553117 0.743055
58 1 0.893267 0.647229 0.608681
292 2 0.868589 0.680314 0.740104
242 1 0.765921 0.735955 0.66542
167 1 0.983645 0.504946 0.597139
239 1 0.13286 0.799844 0.581728
333 2 0.0918738 0.851195 0.692618
12 1 0.0849261 0.949947 0.603426
207 1 0.223054 0.907542 0.66183
218 1 0.219779 0.965092 0.508402
63 1 0.317855 0.846721 0.528157
229 1 0.374699 0.892185 0.684407
187 1 0.47153 0.885705 0.550006
306 2 0.419719 0.781435 0.613965
334 2 0.405605 0.989691 0.512803
179 1 0.530609 0.843392 0.712992
158 1 0.614671 0.77584 0.588131
104 1 0.617988 0.92227 0.622148
295 2 0.731919 0.828146 0.587584
215 1 0.71065 0.870463 0.730697
56 1 0.716693 0.926191 0.503582
35 1 0.993425 0.753676 0.691124
213 1 0.831013 0.77815 0.507257
84 1 0.973093 0.831715 0.559247
13 1 0.96555 0.910193 0.697093
324 2 0.869426 0.781047 0.633446
222 1 0.828483 0.910978 0.608652
135 1 0.826597 0.986688 0.744925
254 1 0.142755 0.544746 0.838843
130 1 0.0968299 0.682476 0.882625
47 1 0.226164 0.614578 0.950438
344 2 0.123088 0.540098 0.982344
42 1 0.00503371 0.570942 0.947675
95 1 0.279559 0.675239 0.817139
217 1 0.44921 0.616659 0.79422
341 2 0.356458 0.600662 0.890781
190 1 0.303311 0.521244 0.798343
243 1 0.496919 0.618169 0.950651
212 1 0.630868 0.630775 0.855006
163 1 0.55666 0.502086 0.838453
349 2 0.728701 0.555215 0.908657
107 1 0.633612 0.511469 0.977318
15 1 0.706352 0.665207 0.981521
360 2 0.99395 0.703613 0.96361
253 1 0.856843 0.673311 0.977861
26 1 0.860885 0.53619 0.902902
226 1 0.782423 0.651183 0.835882
266 1 0.937221 0.680943 0.85381
25 1 0.0240619 0.958079 0.992994
99 1 0.144798 0.750313 0.75138
195 1 0.0291932 0.828364 0.834339
352 2 0.170363 0.79372 0.875407
186 1 0.0899098 0.966811 0.774753
240 1 0.172375 0.916607 0.905017
100 1 0.386288 0.751741 0.897583
279 1 0.250269 0.771253 0.971244
288 1 0.271348 0.825804 0.802786
359 2 0.479264 0.827784 0.942014
283 1 0.441657 0.891915 0.831169
114 1 0.339227 0.895475 0.961667
149 1 0.278107 0.989821 0.80516
93 1 0.692952 0.99521 0.942128
354 2 0.659776 0.864831 0.954184
271 1 0.688495 0.772336 0.863259
232 1 0.596134 0.895963 0.848151
78 1 0.533557 0.75261 0.852967
189 1 0.526962 0.964387 0.967799
117 1 0.857398 0.79891 0.769884
338 2 0.811784 0.766033 0.887295
153 1 0.787133 0.898317 0.868208
151 1 0.935837 0.945224 0.86576
191 1 0.907133 0.817149 0.939732
157 1 0.769308 0.798053 0.999655
ITEM: TIMESTEP
10000000
ITEM: NUMBER OF ATOMS
360
ITEM: BOX BOUNDS pp pp pp
0.0000000000000000e+00 6.6943295008216896e+00
0.0000000000000000e+00 6.6943295008216896e+00
0.0000000000000000e+00 6.6943295008216896e+00
ITEM: ATOMS id type xs ys zs
263 1 0.0515796 0.0544188 0.18534
240 1 0.224801 0.116028 0.175936
49 1 0.101457 0.23782 0.128792
200 1 0.129877 0.07729 0.0523681
119 1 0.226339 0.206797 0.0336149
36 1 0.453123 0.154221 0.0733404
146 1 0.401288 0.0598376 0.185209
145 1 0.317362 0.0741096 0.0616777
245 1 0.34356 0.238171 0.168931
267 1 0.491079 0.180511 0.229902
14 1 0.585497 0.0954653 0.146137
154 1 0.682539 0.211728 0.201615
24 1 0.707174 0.170446 0.0399041
352 2 0.621669 0.0384825 0.0368546
94 1 0.905628 0.0259123 0.0928116
156 1 0.975011 0.160789 0.0696862
196 1 0.834307 0.165868 0.123718
326 2 0.82355 0.0495194 0.18758
20 1 0.749303 0.0330143 0.0662658
262 1 0.0174468 0.306486 0.0205459
341 2 0.210942 0.239886 0.204211
236 1 0.205122 0.366736 0.115322
344 2 0.0522137 0.381629 0.120356
92 1 0.106908 0.354628 0.243524
68 1 0.343828 0.402513 0.145717
289 2 0.448107 0.29007 0.0982327
163 1 0.463891 0.418754 0.0621681
307 2 0.637766 0.142987 0.49069
287 1 0.400817 0.113636 0.503493
97 1 0.517824 0.353546 0.206351
244 1 0.579019 0.260852 0.102525
202 1 0.613554 0.482688 0.10515
165 1 0.675188 0.375151 0.226988
331 2 0.596594 0.463429 0.261445
319 2 0.749145 0.280895 0.122089
115 1 0.142004 0.495546 0.154851
19 1 0.986245 0.463096 0.22021
173 1 0.826683 0.280318 0.243653
323 2 0.882371 0.400334 0.19326
201 1 0.965416 0.29961 0.159873
274 1 0.778239 0.424143 0.120737
258 1 0.93654 0.429994 0.0796041
182 1 0.854102 0.298656 0.0413204
261 1 0.335058 0.331232 -0.0016666
238 1 0.104526 0.196666 0.280505
3 1 0.16919 0.0644396 0.330727
348 2 0.129268 0.166338 0.393937
17 1 0.0116176 0.221225 0.406526
51 1 0.0141425 0.068036 0.35512
207 1 0.248557 0.13444 0.446914
174 1 0.964673 0.34399 0.312248
351 2 0.29082 0.0455386 0.282668
152 1 0.271116 0.185783 0.295372
206 1 0.398285 0.106594 0.336108
251 1 0.132426 0.492235 0.50979
98 1 0.346022 0.246437 0.426308
43 1 0.691263 0.0516248 0.240224
59 1 0.530299 0.0314507 0.280662
142 1 0.52394 0.149901 0.422258
109 1 0.630397 0.0400352 0.402179
312 2 0.606482 0.145931 0.287674
151 1 0.709369 0.16341 0.367393
73 1 0.200726 0.494023 0.293865
118 1 0.939391 0.165172 0.261846
104 1 0.914853 0.0826274 0.481168
316 2 0.793325 0.16118 0.255651
83 1 0.853635 0.0577584 0.31167
22 1 0.855928 0.197886 0.383934
297 2 0.238558 0.285618 0.486765
128 1 0.0619294 0.460393 0.372221
217 1 0.173324 0.295482 0.376705
31 1 0.252281 0.414554 0.437274
248 1 0.87183 0.381359 0.432391
139 1 0.420578 0.474707 0.494517
255 1 0.272831 0.347015 0.270534
337 2 0.379027 0.381702 0.408986
123 1 0.380191 0.475555 0.309126
198 1 0.41587 0.299014 0.304061
160 1 0.482644 0.306162 0.462908
211 1 0.8193 0.442458 0.297975
89 1 0.481423 -0.00405905 0.0662039
228 1 0.73527 0.318545 0.366438
16 1 0.520307 0.434256 0.363778
301 2 0.624581 0.359707 0.40464
269 1 0.674468 0.467861 0.370525
284 1 0.582015 0.269618 0.326577
342 2 0.791591 0.274777 0.471615
126 1 0.653893 0.268536 0.492899
231 1 0.103919 0.0697553 0.495467
329 2 0.145249 0.314673 0.0064916
7 1 0.744081 0.405825 0.511416
107 1 0.68824 0.352225 0.0229267
256 1 0.0963151 0.45808 0.0135923
75 1 0.131244 0.124398 0.642267
300 2 0.259277 0.136812 0.694988
296 2 0.0336665 0.157472 0.545486
159 1 0.250009 0.0388699 0.586069
69 1 0.13362 0.218204 0.507528
183 1 0.0601609 0.0247989 0.744044
140 1 0.265069 0.202651 0.590816
150 1 0.378172 0.10532 0.649003
321 2 0.398449 0.237397 0.554658
60 1 0.520671 0.129704 0.70596
212 1 0.392852 0.24839 0.69881
45 1 0.671361 0.499851 0.650856
169 1 0.531338 0.0548158 0.557776
93 1 0.654474 0.182336 0.638048
315 2 0.609374 0.0343066 0.656685
185 1 0.728202 0.0600383 0.699134
40 1 0.519724 0.219643 0.58365
254 1 0.0202398 0.476217 0.844802
283 1 0.567681 0.0244414 0.812552
324 2 0.75212 0.190732 0.717459
13 1 0.978494 0.0734297 0.62461
204 1 0.853668 0.145019 0.65263
310 2 0.801882 0.0457635 0.59424
213 1 0.913807 0.232875 0.525724
66 1 0.764729 0.154673 0.522259
112 1 0.965441 0.188086 0.747924
334 2 0.875357 0.424347 0.798215
37 1 0.989255 0.362333 0.746244
88 1 0.217997 0.268311 0.736749
103 1 0.048311 0.263182 0.636347
162 1 0.0366885 0.451279 0.632218
203 1 0.179539 0.367344 0.596655
101 1 0.85155 0.284041 0.762336
27 1 0.338244 0.351197 0.547475
105 1 0.473696 0.369087 0.609576
46 1 0.311625 0.388841 0.684493
227 1 0.7509 0.398111 0.868569
293 2 0.557059 0.448796 0.679636
62 1 0.627548 0.341621 0.637217
86 1 0.0461614 0.350948 0.488621
127 1 0.535025 0.275883 0.759394
87 1 0.69976 0.291716 0.765861
359 2 0.914976 0.258208 0.649372
167 1 0.769812 0.28606 0.615046
170 1 0.786595 0.408133 0.700863
266 1 0.897417 0.378177 0.586868
328 2 0.0921801 0.280882 0.754675
302 2 0.206674 0.146076 0.902729
41 1 0.127612 0.159402 0.797768
25 1 0.0835884 0.19076 0.937726
131 1 0.217962 0.020478 0.751435
114 1 0.396104 0.0537957 0.790209
247 1 0.277313 0.0415118 0.909726
188 1 0.439959 0.0517542 0.933634
233 1 0.305898 0.168031 0.815231
224 1 0.354316 0.188248 0.959633
209 1 0.471451 0.17606 0.852619
260 1 0.619191 0.27615 0.904548
194 1 0.646342 0.149351 0.798513
95 1 0.574336 0.131646 0.962383
153 1 0.713623 0.0540022 0.920215
277 1 0.589497 0.426547 0.50983
220 1 0.777845 0.245366 0.908658
113 1 0.85467 0.10122 0.972096
76 1 0.925041 0.215656 0.902838
38 1 0.974077 0.0775588 0.862994
222 1 0.80799 0.128498 0.814776
314 2 0.994909 0.040845 0.987311
271 1 0.900161 0.378846 0.914528
82 1 0.218064 0.279525 0.895575
257 1 0.142338 0.40507 0.768976
67 1 0.064678 0.329656 0.875311
44 1 0.233763 0.440899 0.924431
214 1 0.119538 0.0224864 0.89308
346 2 0.261683 0.369449 0.815915
191 1 0.452003 0.416423 0.753045
172 1 0.396401 0.452253 0.901884
210 1 0.375607 0.309018 0.842028
241 1 0.492491 0.2775 0.977384
243 1 0.578098 0.431797 0.96047
78 1 0.609988 0.409939 0.799696
360 2 0.502984 0.365286 0.86707
72 1 0.682178 0.00985827 0.555525
354 2 0.808267 0.4158 0.991524
111 1 0.284947 0.495483 0.567109
186 1 0.881099 0.011801 0.737614
349 2 0.975555 0.491224 0.962328
311 2 0.865534 0.0203033 0.881545
29 1 0.964299 0.493457 0.496191
80 1 0.121009 0.676879 0.156927
294 2 0.0170612 0.693335 0.0801505
134 1 0.0179147 0.563857 0.0975626
192 1 0.208891 0.576766 0.0210592
281 1 0.481323 0.991227 0.427955
286 1 0.266752 0.705372 0.0932191
249 1 0.278016 0.551771 0.170648
218 1 0.40607 0.659184 0.127795
340 2 0.30846 0.713843 0.204887
90 1 0.523028 0.705311 0.013604
143 1 0.461807 0.519651 0.177839
353 2 0.496285 0.750908 0.134377
100 1 0.571465 0.637494 0.14589
10 1 0.697683 0.538805 0.22399
232 1 0.709271 0.668713 0.0473749
327 2 0.762104 0.553371 0.0903754
308 2 0.658639 0.665077 0.246209
295 2 0.61745 0.586877 0.0329488
110 1 0.793428 0.855499 0.343229
246 1 0.779367 0.676886 0.193965
15 1 0.885587 0.692536 0.0849312
216 1 0.854157 0.551667 0.184787
9 1 0.958662 0.674945 0.232835
250 1 0.861354 0.55629 0.022507
273 1 0.344401 0.502785 0.0280401
171 1 0.0958297 0.80377 0.0628475
39 1 0.20063 0.808977 0.211433
166 1 0.137544 0.946359 0.143753
148 1 0.0500585 0.801712 0.203921
318 2 0.780032 0.860818 0.500988
338 2 0.366812 0.769804 0.0393731
2 1 0.340779 0.905062 0.0227424
358 2 0.249678 0.838241 0.0845439
252 1 0.291074 0.95371 0.160096
279 1 0.360575 0.811731 0.154702
333 2 0.413997 0.932142 0.154362
234 1 0.899039 0.800271 0.443693
79 1 0.479892 0.844269 0.0563214
259 1 0.50486 0.87121 0.202743
65 1 0.623908 0.781511 0.180166
136 1 0.628494 0.942566 0.122114
357 2 0.742769 0.796437 0.247524
52 1 0.875098 0.805809 0.220623
11 1 0.942517 0.854137 0.0933743
347 2 0.829032 0.924321 0.0878257
81 1 0.765889 0.811594 0.11224
108 1 0.941409 0.952265 0.222324
242 1 0.77793 0.931407 0.211383
298 2 0.112018 0.708502 0.296684
270 1 0.0735123 0.584658 0.267901
193 1 0.131608 0.625446 0.419277
345 2 0.0140921 0.587034 0.431242
147 1 0.227235 0.656862 0.281391
225 1 -0.00183544 0.712085 0.387992
177 1 0.383322 0.63108 0.286583
299 2 0.420932 0.570582 0.394148
141 1 0.454899 0.708718 0.410488
23 1 0.290964 0.561798 0.411986
144 1 0.30202 0.717779 0.448263
278 1 0.502329 0.727607 0.262727
237 1 0.545931 0.559941 0.438152
53 1 0.559629 0.580637 0.290418
285 1 0.6899 0.62321 0.369284
317 2 0.565612 0.671912 0.368877
137 1 0.75683 0.734224 0.469715
58 1 0.806633 0.5289 0.444036
343 2 0.800986 0.572227 0.30311
32 1 0.922568 0.567018 0.338973
124 1 0.840253 0.699136 0.349871
55 1 0.932162 0.939876 0.379195
180 1 0.624974 0.809968 0.0315603
221 1 0.0506589 0.854271 0.45586
239 1 0.0763741 0.925915 0.292896
4 1 0.177516 0.783848 0.364618
63 1 0.179995 0.93834 0.461041
121 1 0.234684 0.918441 0.316577
235 1 0.394507 0.847158 0.460598
335 2 0.741028 0.97019 0.353986
28 1 0.396669 0.942116 0.295695
230 1 0.350828 0.784059 0.302244
56 1 0.592274 0.725257 0.478431
265 1 0.523903 0.846605 0.354192
197 1 0.643081 0.915554 0.27958
33 1 0.648224 0.759961 0.329424
181 1 0.653659 0.885797 0.433945
292 2 0.974198 0.829038 0.312342
1 1 0.48994 0.553453 0.00168394
54 1 0.796607 0.974838 0.457356
161 1 0.320565 0.999621 0.420155
8 1 0.0364791 0.933919 0.00894891
309 2 1.01144 0.980244 0.48865
264 1 0.0755544 0.631912 0.568129
12 1 0.174625 0.723247 0.673962
34 1 0.234643 0.639046 0.548384
47 1 0.171186 0.520052 0.671533
176 1 0.0514539 0.597043 0.729172
290 2 0.041505 0.721252 0.69716
272 1 0.299687 0.63588 0.691243
199 1 0.448844 0.666196 0.6723
74 1 0.401128 0.624021 0.528926
219 1 0.405181 0.517963 0.654358
339 2 0.457458 0.752559 0.541157
158 1 0.541737 0.552859 0.597883
184 1 0.599274 0.699596 0.640093
226 1 0.665765 0.671182 0.777252
21 1 0.673032 0.587465 0.520735
330 2 0.816661 0.790283 0.992943
195 1 0.765351 0.663776 0.626636
291 2 0.775057 0.543671 0.709783
178 1 0.925187 0.676543 0.662901
303 2 0.967754 0.575279 0.615865
132 1 0.834025 0.52288 0.596306
70 1 0.280033 0.494209 0.786286
304 2 0.511038 0.515134 0.86724
6 1 0.153065 0.776187 0.531551
288 1 0.224067 0.883478 0.627128
99 1 0.0903648 0.962836 0.598192
205 1 0.0863594 0.855162 0.732295
84 1 1.01182 0.799482 0.605385
187 1 0.341251 0.771127 0.605791
77 1 0.3999 0.966808 0.559969
5 1 0.346804 0.923364 0.718877
61 1 0.487443 0.971996 0.67778
50 1 0.483609 0.816579 0.678887
116 1 0.71777 0.51187 0.976135
133 1 0.539397 0.878722 0.546804
91 1 0.676008 0.817899 0.591078
155 1 0.625278 0.908634 0.697715
320 2 0.625888 0.790137 0.732146
282 1 0.764006 0.95502 0.817475
71 1 0.755318 0.793222 0.728269
313 2 0.969197 0.954677 0.676985
48 1 0.787208 0.92849 0.643552
168 1 0.914379 0.931468 0.559095
106 1 0.907741 0.854777 0.720023
26 1 0.848965 0.795262 0.593202
223 1 0.12315 0.691337 0.966796
356 2 0.199269 0.612387 0.761482
30 1 0.150869 0.560058 0.858295
125 1 0.112821 0.715123 0.815731
117 1 0.990356 0.616082 0.940672
229 1 0.263845 0.680821 0.847224
57 1 0.417614 0.587027 0.815875
355 2 0.457938 0.665182 0.905737
322 2 0.311094 0.553391 0.901005
42 1 0.35062 0.653218 0.972014
96 1 0.881812 0.925934 0.969019
64 1 0.554234 0.564473 0.748103
35 1 0.698347 0.52628 0.80891
189 1 0.609255 0.612135 0.913853
215 1 0.525542 0.736143 0.811697
135 1 0.714672 0.753285 0.902452
190 1 0.91375 0.650922 0.504424
268 1 0.977884 0.91967 0.844674
305 2 0.737852 0.624696 0.888199
18 1 0.841006 0.523579 0.870224
179 1 0.820398 0.652341 0.783844
208 1 0.851681 0.678892 0.931414
325 2 0.946451 0.582171 0.82255
129 1 0.962883 0.730346 0.805381
253 1 0.847624 0.822269 0.857657
85 1 0.974302 0.772957 0.971119
138 1 0.235992 0.822741 0.783556
332 2 0.212273 0.929747 0.849529
102 1 0.112468 0.854319 0.889039
276 1 0.372149 0.771495 0.769752
280 1 0.250138 0.784147 0.958226
130 1 0.335566 0.9042 0.865531
306 2 0.445296 0.926555 0.959549
149 1 0.412452 0.790948 0.918358
275 1 0.478209 0.890449 0.818725
157 1 0.731591 0.896332 0.965043
164 1 0.572987 0.947754 0.956205
350 2 0.539869 0.817857 0.931937
120 1 0.633653 0.869439 0.849686
175 1 0.916781 0.514223 0.722359
122 1 0.19277 0.938776 1.0026
336 2 0.273569 0.830969 0.501519
ITEM: TIMESTEP
20000000
ITEM: NUMBER OF ATOMS
360
ITEM: BOX BOUNDS pp pp pp
0.0000000000000000e+00 6.6943295008216896e+00
0.0000000000000000e+00 6.6943295008216896e+00
0.0000000000000000e+00 6.6943295008216896e+00
ITEM: ATOMS id type xs ys zs
3 1 0.145856 0.0536458 0.165776
17 1 0.0665047 0.188065 0.146537
38 1 0.070181 0.09527 0.0347705
255 1 0.209449 0.237331 0.141849
214 1 0.226138 0.116695 0.0361897
301 2 0.158094 0.160735 0.229009
247 1 0.29934 0.0992171 0.189133
89 1 0.450932 0.121808 0.118927
345 2 0.499977 0.211198 0.209569
328 2 0.336685 0.177867 0.0847823
248 1 0.787219 0.4049 0.409016
14 1 0.618353 0.193954 0.145975
136 1 0.633257 0.056622 0.0768501
43 1 0.7169 0.101701 0.234501
196 1 0.914844 0.112661 0.0178862
113 1 0.968266 0.0569161 0.172597
20 1 0.815949 0.0824048 0.125937
302 2 0.839232 0.211747 0.0787275
69 1 0.906328 0.191421 0.210822
154 1 0.760641 0.251291 0.173052
240 1 0.1973 0.378502 0.0677088
262 1 0.0421428 0.346025 0.111702
258 1 0.120698 0.465318 0.19056
15 1 0.0883497 0.475856 0.0296132
60 1 0.463674 0.153834 0.484686
245 1 0.380737 0.247764 0.181717
36 1 0.42659 0.249004 0.0263626
207 1 0.262502 0.362971 0.238972
198 1 0.44636 0.464752 0.130783
44 1 0.343991 0.369211 0.07997
350 2 0.406121 0.370603 0.226947
251 1 0.934611 0.326692 0.455095
156 1 0.952849 0.258908 0.0289301
42 1 0.513306 0.330637 0.152237
118 1 0.64154 0.335438 0.223114
116 1 0.660438 0.294058 0.0486714
173 1 0.598874 0.469181 0.158592
314 2 -0.00310425 0.290736 0.215899
80 1 0.860409 0.473012 0.230948
134 1 0.742063 0.425302 0.114419
213 1 0.893839 0.3525 0.1473
348 2 0.776365 0.363284 0.231121
291 2 0.943174 0.433523 0.39156
19 1 0.879196 0.328288 0.30882
326 2 0.975387 0.455358 0.146274
200 1 0.142291 0.175621 0.388025
98 1 0.217725 0.0462823 0.308483
152 1 0.0628093 0.0937992 0.289068
104 1 0.00615855 0.0973476 0.45647
86 1 0.9928 0.229143 0.328894
123 1 0.269649 0.20761 0.297732
146 1 0.434375 0.137072 0.296093
140 1 0.326162 0.112721 0.41981
337 2 0.34116 0.0111606 0.322048
180 1 0.732829 0.165167 0.0138916
59 1 0.555029 0.0693788 0.223023
321 2 0.537543 0.229122 0.406904
40 1 0.567838 0.0844617 0.387012
151 1 0.664932 0.228664 0.477755
340 2 0.643998 0.0173288 0.301324
228 1 0.604379 0.200172 0.298252
66 1 0.71554 0.0804438 0.396384
263 1 0.740244 0.269507 0.332646
49 1 0.87091 0.0624941 0.293582
51 1 0.848487 0.174925 0.403617
54 1 0.865893 0.0250223 0.460366
119 1 0.118252 0.244328 -0.00884816
143 1 0.51339 0.389309 0.00534705
216 1 0.936154 0.413171 0.010779
270 1 0.0018953 0.41008 0.269727
9 1 0.126941 0.291743 0.268398
317 2 0.147467 0.417779 0.316023
92 1 0.072925 0.362747 0.400645
76 1 0.229507 0.341689 0.386834
267 1 0.477366 0.287166 0.301383
37 1 0.458005 0.446233 0.454463
107 1 0.361799 0.398799 0.347692
312 2 0.301215 0.484725 0.437586
281 1 0.380226 0.265304 0.428442
206 1 0.603819 0.339219 0.377093
284 1 0.510812 0.444102 0.279332
165 1 0.704495 0.468072 0.301524
127 1 0.292906 0.500051 0.171404
73 1 0.597265 0.502451 0.411151
259 1 0.404383 -0.00519355 0.206711
25 1 0.17474 0.484305 0.464611
225 1 0.0100635 0.515825 0.462724
13 1 0.0622348 0.241503 0.501319
231 1 0.0584597 0.0961862 0.599114
349 2 0.146981 0.193653 0.57902
183 1 0.177833 0.166586 0.706293
221 1 0.17914 0.0919607 0.508077
287 1 0.248951 0.232485 0.499976
211 1 0.803071 0.283619 0.528005
163 1 0.767709 0.288979 0.791641
88 1 0.316105 0.0920622 0.593223
260 1 0.430481 0.129651 0.698845
339 2 0.321776 0.210784 0.70529
50 1 0.412347 0.00770893 0.4991
282 1 0.0568277 0.0181032 0.891384
283 1 0.518752 0.0374503 0.615407
194 1 0.644279 0.102144 0.707953
266 1 0.54973 0.1904 0.608047
45 1 0.726083 0.198319 0.615416
22 1 0.644606 0.0882372 0.533555
191 1 0.631322 0.252606 0.738092
313 2 0.93596 0.0220769 0.558118
93 1 0.779122 0.0532777 0.611445
174 1 0.896172 0.16537 0.557184
186 1 0.907609 0.0457436 0.687579
343 2 0.824274 0.255574 0.668157
87 1 0.0600965 0.253092 0.6541
217 1 0.0805033 0.394872 0.557079
203 1 0.205624 0.306751 0.625429
254 1 0.0139755 0.387758 0.724167
257 1 0.222862 0.46636 0.625381
298 2 0.204605 0.365937 0.51349
27 1 0.456041 0.486264 0.613515
212 1 0.378822 0.246994 0.599333
142 1 0.333604 0.384033 0.539873
209 1 0.336395 0.358934 0.704505
316 2 0.45895 0.359442 0.620693
78 1 0.585 0.387705 0.66103
332 2 0.631721 0.289636 0.58502
126 1 0.72774 0.343877 0.653077
210 1 0.519474 0.3057 0.5102
131 1 0.403386 0.0237215 0.834219
114 1 0.538879 0.0252395 0.93421
16 1 0.67554 0.380916 0.512801
233 1 0.470861 0.270455 0.746548
82 1 0.937008 0.322167 0.60383
112 1 0.858873 0.408422 0.719269
132 1 0.822854 0.443684 0.562146
176 1 0.965194 0.485248 0.613593
271 1 0.799207 0.42422 0.862826
208 1 0.677274 0.410884 0.956835
222 1 0.0436349 0.11159 0.758138
153 1 0.170594 0.150429 0.872511
220 1 1.00878 0.181114 0.90353
320 2 0.800619 0.454199 1.00241
236 1 0.273531 0.255017 0.959603
75 1 0.290389 0.074052 0.754895
122 1 0.402635 0.0994759 0.96941
297 2 0.46959 0.216568 0.91366
224 1 0.365059 0.189994 0.837699
41 1 0.271276 0.0192631 0.918609
57 1 0.400925 0.487335 0.963804
274 1 0.520755 0.132887 0.828596
309 2 0.672045 0.0674855 0.947223
24 1 0.668033 0.181876 0.860882
331 2 0.908488 0.461493 0.897472
95 1 0.573544 0.173841 0.98235
35 1 0.714921 0.486977 0.705988
103 1 0.937405 0.234666 0.738152
204 1 0.795734 0.145978 0.735266
182 1 0.837387 0.195669 0.89744
329 2 0.772382 0.0958779 0.857053
244 1 0.895287 0.0799576 0.829105
170 1 0.927857 0.334665 0.855531
67 1 0.171091 0.420344 0.766801
330 2 0.0214578 0.304721 0.931825
46 1 0.0884477 0.27424 0.808272
115 1 0.177227 0.374995 0.919997
30 1 0.0378945 0.444483 0.879566
295 2 0.556271 0.431283 0.54011
159 1 0.250736 0.277732 0.796872
273 1 0.296072 0.461937 0.847856
68 1 0.39418 0.337398 0.890708
327 2 0.293468 0.386564 0.967994
105 1 0.455023 0.420808 0.76834
241 1 0.572959 0.295462 0.889703
101 1 0.652034 0.395416 0.800304
243 1 0.554236 0.487412 0.886213
360 2 0.705902 0.290641 0.916417
48 1 0.789715 0.0256447 0.965076