ITEM: TIMESTEP
0
ITEM: NUMBER OF ATOMS
360
ITEM: BOX BOUNDS pp pp pp
0.0000000000000000e+00 6.6943295008216896e+00
0.0000000000000000e+00 6.6943295008216896e+00
0.0000000000000000e+00 6.6943295008216896e+00
ITEM: ATOMS id type xs ys zs
4 1 0.0208333 0.0137917 0.134685
97 1 0.175121 0.179018 0.0792874
315 2 0.0600756 0.0916608 0.0379039
181 1 0.00185181 0.164101 0.172888
332 2 0.143307 0.158041 0.22625
8 1 0.238048 0.0948458 0.178112
139 1 0.120194 0.0471458 0.232733
156 1 0.147286 0.0188004 0.0860706
144 1 0.434243 0.0924929 0.0221285
101 1 0.304608 0.101463 0.0430272
24 1 0.397427 0.122221 0.170724
192 1 0.29383 0.233532 0.0397575
274 1 0.702916 0.0535642 0.123774
10 1 0.72551 0.162219 0.199189
327 2 0.585241 0.221722 0.0444717
79 1 0.599342 0.104769 0.184155
14 1 0.565731 0.0441046 0.0401211
129 1 0.534036 0.00164419 0.245983
346 2 0.50973 0.131462 0.131683
316 2 0.767319 0.238849 0.117963
283 1 0.918465 0.115264 0.0545268
67 1 0.792732 0.119431 0.0241665
307 2 0.975343 0.066464 0.229441
22 1 0.838653 0.0527035 0.240217
337 2 0.222846 0.309669 0.121466
88 1 0.00153178 0.444197 0.0528436
213 1 0.190946 0.276212 0.221905
145 1 0.105605 0.413331 0.141887
167 1 0.0108422 0.499119 0.219981
31 1 0.00611367 0.291935 0.115137
319 2 0.102 0.260072 0.0330873
172 1 0.177803 0.367939 0.0195363
123 1 0.423764 0.289282 0.134157
2 1 0.2854 0.441042 0.139597
108 1 0.325686 0.35902 0.238459
280 1 0.377356 0.498531 0.23518
194 1 0.482186 0.470299 0.139298
104 1 0.495738 0.350216 0.240974
89 1 0.483579 0.266792 0.00795258
235 1 0.725656 0.303574 0.202223
93 1 0.592832 0.296219 0.127207
34 1 0.732589 0.380286 0.0572912
160 1 0.530669 0.417065 0.000478594
94 1 0.629321 0.453908 0.0966956
82 1 0.723898 0.453782 0.193517
138 1 0.907468 0.339715 0.0325262
287 1 0.846653 0.468056 0.0728788
106 1 0.876173 0.250772 0.216295
208 1 0.967797 0.37217 0.237462
247 1 0.830211 0.382945 0.175105
21 1 0.107229 0.140684 0.330161
124 1 0.140744 0.123779 0.482895
340 2 0.0386063 0.182272 0.408569
269 1 0.0639508 0.243175 0.261793
191 1 0.0132448 0.0627218 0.380498
248 1 0.477711 0.117608 0.344978
122 1 0.281813 0.142541 0.3871
212 1 0.372915 0.226659 0.304109
328 2 0.453091 0.194383 0.448774
76 1 0.350748 0.0455445 0.414868
80 1 0.546548 0.209521 0.258872
348 2 0.735618 0.0441385 0.280574
236 1 0.630449 0.110462 0.375572
78 1 0.580057 0.0156042 0.453392
356 2 0.781616 0.0166109 0.417726
155 1 0.937974 0.1489 0.310977
266 1 0.851595 0.102628 0.393357
263 1 0.751022 0.170903 0.422983
259 1 0.248937 0.441577 0.30781
347 2 0.112464 0.494557 0.295413
302 2 0.236266 0.323244 0.320446
116 1 0.121147 0.364221 0.380354
141 1 0.19897 0.437216 0.469172
58 1 0.424039 0.304895 0.451742
119 1 0.404352 0.407679 0.335754
118 1 0.278345 0.301842 0.461187
38 1 0.345094 0.43361 0.453338
214 1 0.680092 0.26776 0.406041
295 2 0.650622 0.254344 0.290278
103 1 0.715249 0.436892 0.326587
233 1 0.613639 0.370649 0.274899
72 1 0.736104 0.492599 0.465841
230 1 0.597177 0.437151 0.499327
339 2 0.985566 0.269763 0.429852
255 1 0.858192 0.285085 0.368765
326 2 0.963777 0.250813 0.30698
51 1 0.862227 0.424416 0.367392
210 1 0.988669 0.426517 0.351306
350 2 0.965474 0.494392 0.41891
243 1 0.768298 0.334892 0.476755
314 2 0.00733025 0.0328749 0.604541
49 1 0.145133 0.169599 0.691851
310 2 0.0496549 0.0935928 0.70959
330 2 0.205283 0.101353 0.629535
196 1 0.143042 0.0224365 0.717732
325 2 0.0987378 0.0398867 0.507728
331 2 0.0498366 0.135968 0.587924
5 1 0.292009 0.0231262 0.655767
135 1 0.475598 0.0899777 0.666645
223 1 0.398242 0.193858 0.625714
216 1 0.435353 0.0273533 0.521565
56 1 0.269764 0.14272 0.543135
237 1 0.597369 0.15681 0.657118
291 2 0.502258 0.150703 0.562699
128 1 0.746222 0.126574 0.671574
149 1 0.657814 0.155311 0.526021
174 1 0.775963 0.0314115 0.563571
176 1 0.922794 0.182598 0.536427
60 1 0.981803 0.184471 0.658058
252 1 0.152737 0.301882 0.537808
96 1 0.0481491 0.396671 0.523799
257 1 0.0727423 0.367396 0.693606
193 1 0.256109 0.256872 0.629323
29 1 0.414385 0.336621 0.666765
305 2 0.309454 0.378386 0.536879
50 1 0.277243 0.38593 0.686592
290 2 0.446274 0.371444 0.543794
270 1 0.435354 0.472599 0.561428
286 1 0.676341 0.368075 0.622415
109 1 0.677278 0.493902 0.592319
154 1 0.653522 0.310721 0.742301
299 2 0.714044 0.270754 0.63316
242 1 0.539182 0.380317 0.611108
320 2 0.723556 0.430992 0.693195
114 1 0.593022 0.286994 0.510955
359 2 0.977654 0.458938 0.67492
36 1 0.824873 0.303217 0.606485
42 1 0.785788 0.312017 0.734574
179 1 0.92572 0.338224 0.700962
298 2 0.843976 0.415448 0.70387
111 1 0.921667 0.331813 0.525025
260 1 0.887469 0.475586 0.503009
102 1 0.0244521 0.209951 0.831382
99 1 0.00441304 0.14886 0.963579
83 1 0.129839 0.133835 0.888866
296 2 0.191701 0.0790668 0.993165
100 1 0.0440356 0.0386842 0.922799
151 1 0.271983 0.159551 0.757966
203 1 0.414614 0.140879 0.753961
334 2 0.469668 0.238188 0.904466
173 1 0.40257 0.0340347 0.851628
32 1 0.309842 0.149949 0.922906
69 1 0.250612 0.0555393 0.858926
204 1 0.681182 0.189135 0.983341
277 1 0.559526 0.21532 0.773693
195 1 0.552495 0.160962 0.953179
163 1 0.520123 0.0928609 0.813755
92 1 0.670885 0.01511 0.912932
321 2 0.524541 0.0375527 0.915922
288 1 0.637661 0.11142 0.786217
354 2 0.91902 0.195353 0.917513
66 1 0.83213 0.230455 0.987447
59 1 0.866938 0.0413345 0.924991
137 1 0.926519 0.0589863 0.765108
190 1 0.85559 0.175891 0.819235
90 1 0.0372371 0.49104 0.775632
311 2 0.218763 0.487169 0.843044
335 2 0.222656 0.295071 0.950247
131 1 0.053354 0.3376 0.826933
178 1 0.11799 0.273004 0.919103
177 1 0.164056 0.270967 0.781311
148 1 0.0998069 0.474605 0.93386
333 2 0.298334 0.26621 0.758539
206 1 0.414229 0.289748 0.794121
44 1 0.253503 0.433824 0.938681
245 1 0.258496 0.370271 0.814599
74 1 0.327493 0.273646 0.89332
43 1 0.326135 0.468434 0.772174
219 1 0.409291 0.441265 0.914966
273 1 0.332373 0.365576 0.999601
349 2 0.503364 0.358357 0.85931
23 1 0.628572 0.46045 0.776381
294 2 0.694262 0.379301 0.817184
16 1 0.626833 0.44684 0.902547
117 1 0.6058 0.27374 0.92339
153 1 0.533356 0.355514 0.756687
70 1 0.909851 0.29731 0.82312
308 2 0.982553 0.250986 0.992559
18 1 0.765751 0.363902 0.921941
158 1 0.901833 0.468777 0.853022
130 1 0.996107 0.368238 0.944577
180 1 0.761978 0.46661 0.820388
3 1 0.802177 0.496687 0.952669
1 1 0.142232 0.574376 0.156904
17 1 0.216525 0.675558 0.211526
15 1 0.1914 0.505404 0.0261931
28 1 0.0857287 0.633765 0.0397687
272 1 0.114551 0.742485 0.139306
133 1 0.257534 0.614617 0.0653463
171 1 0.390366 0.640036 0.0271172
202 1 0.367218 0.510099 0.0355982
317 2 0.469366 0.682958 0.0741372
357 2 0.270753 0.522713 0.211779
143 1 0.317218 0.745909 0.0973688
164 1 0.397553 0.730275 0.234018
197 1 0.711442 0.569235 0.108116
84 1 0.561617 0.708697 0.209003
218 1 0.530959 0.575676 0.223236
338 2 0.65567 0.655006 0.154616
265 1 0.677658 0.585686 0.237552
6 1 0.553501 0.603087 0.100263
267 1 0.899096 0.591713 0.0122297
127 1 0.848809 0.682326 0.227296
240 1 0.789657 0.744981 0.100174
12 1 0.952901 0.747976 0.129981
113 1 0.94534 0.594255 0.127668
7 1 0.756711 0.648406 0.0091932
250 1 0.218743 0.844783 0.220869
62 1 0.166759 0.855801 0.0287254
254 1 0.0483038 0.869925 0.147925
251 1 0.0418986 0.801904 0.0359665
57 1 0.337493 0.96117 0.165272
53 1 0.41423 0.954012 0.0413222
134 1 0.432429 0.808652 0.0752998
45 1 0.696758 0.756614 0.24146
161 1 0.583766 0.84858 0.0811634
300 2 0.681696 0.956796 0.162935
353 2 0.674799 0.969048 0.0205856
25 1 0.506598 0.963834 0.13754
95 1 0.716728 0.865257 0.113181
162 1 0.617382 0.878548 0.236703
352 2 0.906152 0.989603 0.0174846
142 1 0.869861 0.95499 0.158868
37 1 0.801063 0.969183 0.0478347
225 1 0.766746 0.923149 0.226722
231 1 0.915403 0.859485 0.0607145
187 1 0.0397579 0.696396 0.381612
264 1 0.111835 0.532072 0.41251
304 2 0.0519491 0.615689 0.260907
262 1 0.164609 0.747066 0.304785
343 2 0.155437 0.639317 0.406195
234 1 0.210647 0.574029 0.315149
77 1 0.0340932 0.647516 0.486541
238 1 0.391208 0.674293 0.373926
185 1 0.343575 0.538427 0.370593
47 1 0.461172 0.559553 0.455081
261 1 0.266352 0.696077 0.39322
324 2 0.487348 0.536615 0.320859
313 2 0.507406 0.700467 0.435444
35 1 0.605357 0.532543 0.354012
182 1 0.601187 0.622876 0.470216
198 1 0.651565 0.718117 0.37911
169 1 0.53063 0.677563 0.331783
26 1 0.912334 0.60838 0.432742
75 1 0.829291 0.526057 0.259854
81 1 0.87377 0.74392 0.371697
301 2 0.773298 0.64016 0.345771
105 1 0.937882 0.594656 0.302851
244 1 0.784498 0.626956 0.463331
222 1 0.229541 0.954175 0.272147
228 1 0.164517 0.847437 0.435033
52 1 0.0534771 0.802968 0.482452
140 1 0.226984 0.976042 0.431749
121 1 0.0832546 0.940929 0.308105
200 1 0.0171037 0.781831 0.264169
284 1 0.33479 0.809293 0.286582
63 1 0.485115 0.821843 0.256987
157 1 0.442025 0.797651 0.420566
241 1 0.410836 0.942722 0.275262
275 1 0.582716 0.779157 0.483625
30 1 0.656387 0.980277 0.318955
258 1 0.725051 0.832394 0.381135
46 1 0.561548 0.883745 0.374113
54 1 0.701335 0.934795 0.475357
342 2 0.994934 0.939676 0.41888
87 1 0.853547 0.911785 0.427239
112 1 0.927734 0.927152 0.299169
61 1 0.887516 0.81316 0.251385
220 1 0.211047 0.605851 0.526054
201 1 0.065536 0.709957 0.626293
336 2 0.204917 0.67346 0.671301
289 2 0.0564862 0.601873 0.727532
68 1 0.0744502 0.508823 0.604839
312 2 0.236712 0.722503 0.501156
186 1 0.298464 0.621925 0.635923
256 1 0.29043 0.510621 0.566718
91 1 0.34747 0.676154 0.537532
224 1 0.463986 0.523603 0.743349
184 1 0.451258 0.747623 0.684329
344 2 0.279133 0.619271 0.742847
215 1 0.555886 0.546034 0.65282
303 2 0.623044 0.74796 0.585957
221 1 0.718202 0.60653 0.749392
126 1 0.655101 0.644596 0.584213
276 1 0.502062 0.679911 0.566807
132 1 0.906077 0.699371 0.544519
39 1 0.836628 0.518974 0.682002
292 2 0.786518 0.539863 0.57902
199 1 0.892866 0.715217 0.673907
268 1 0.782835 0.650341 0.598553
217 1 0.936179 0.567802 0.604063
282 1 0.197284 0.77301 0.742252
285 1 0.088275 0.838381 0.723059
98 1 0.161606 0.909109 0.631252
71 1 0.203804 0.760055 0.594688
19 1 0.0463831 0.933354 0.512575
322 2 0.221885 0.938675 0.540284
188 1 0.28136 0.86051 0.623175
165 1 0.340185 0.906993 0.514095
351 2 0.423792 0.950199 0.596538
309 2 0.296434 0.772886 0.717012
48 1 0.439122 0.820458 0.569757
345 2 0.546057 0.993193 0.562643
205 1 0.564117 0.895768 0.534773
40 1 0.745228 0.76629 0.731687
136 1 0.695818 0.834587 0.567944
183 1 0.631575 0.982725 0.667687
232 1 0.52863 0.869055 0.691266
152 1 0.61451 0.784492 0.724455
271 1 0.836706 0.901976 0.592936
189 1 0.797947 0.992572 0.69071
150 1 0.982003 0.959764 0.691618
27 1 0.809996 0.796574 0.515682
64 1 0.924355 0.995318 0.509648
107 1 0.880543 0.821005 0.741143
33 1 0.960796 0.822011 0.59416
306 2 0.0130739 0.690579 0.916245
207 1 0.0976214 0.606068 0.847866
125 1 0.0625607 0.726979 0.813137
278 1 0.156508 0.726615 0.915434
168 1 0.257383 0.680911 0.832578
279 1 0.412496 0.582924 0.919034
281 1 0.271654 0.565253 0.910094
226 1 0.287405 0.69566 0.966758
159 1 0.430837 0.671976 0.805347
146 1 0.569228 0.729036 0.869591
360 2 0.675458 0.54801 0.972561
115 1 0.539362 0.576525 0.931201
227 1 0.574049 0.582045 0.803978
297 2 0.659263 0.707831 0.78752
55 1 0.616726 0.707036 0.99719
110 1 0.954976 0.5872 0.785953
318 2 0.957607 0.507306 0.942525
65 1 0.753045 0.607588 0.882725
341 2 0.897594 0.600957 0.883504
253 1 0.841508 0.666477 0.799045
13 1 0.177831 0.974489 0.939728
86 1 0.0154395 0.97164 0.814431
41 1 0.143654 0.859665 0.847127
170 1 0.0558673 0.933554 0.999003
249 1 0.362218 0.772415 0.865206
147 1 0.264796 0.947712 0.778026
229 1 0.409634 0.885666 0.766425
293 2 0.458743 0.942208 0.869768
85 1 0.47999 0.804677 0.955348
246 1 0.300811 0.940058 0.957013
323 2 0.33105 0.810886 0.978652
239 1 0.627672 0.875863 0.855315
209 1 0.709177 0.838584 0.976836
211 1 0.722309 0.949928 0.802634
20 1 0.546637 0.917944 0.942079
329 2 0.503522 0.810644 0.846524
175 1 0.573645 0.976023 0.783821
73 1 0.868446 0.934557 0.784751
120 1 0.975723 0.796058 0.922019
355 2 0.918989 0.752397 0.823109
166 1 0.781271 0.821176 0.858053
358 2 0.768048 0.956823 0.912559
9 1 0.823728 0.762688 0.977093
11 1 0.865048 0.889077 0.952322
ITEM: TIMESTEP
10000
ITEM: NUMBER OF ATOMS
360
ITEM: BOX BOUNDS pp pp pp
0.0000000000000000e+00 6.6943295008216896e+00
0.0000000000000000e+00 6.6943295008216896e+00
0.0000000000000000e+00 6.6943295008216896e+00
ITEM: ATOMS id type xs ys zs
246 1 0.202753 0.247204 0.0826803
83 1 0.0657309 0.170299 0.0820997
334 2 0.149225 0.0720361 0.116946
170 1 0.0175208 0.0372708 0.134932
8 1 0.155778 0.157867 0.214396
69 1 0.0956778 0.0147198 0.00111244
74 1 0.399002 0.0417335 0.0680459
348 2 0.361389 0.21592 0.230005
78 1 0.287774 0.149655 0.142194
80 1 0.445426 0.210703 0.116242
314 2 0.362147 0.0740032 0.209164
156 1 0.257227 0.000457515 0.178514
250 1 0.264529 0.0584949 0.0245891
204 1 0.683551 0.0782067 0.0414538
353 2 0.715216 0.00294058 0.150414
144 1 0.584981 0.178907 0.0222836
316 2 0.694918 0.204156 0.0514176
25 1 0.539889 0.00676482 0.10184
117 1 0.737577 0.138358 0.154592
20 1 0.585768 0.124837 0.171891
162 1 0.618994 0.00121675 0.249863
11 1 0.922147 0.140529 0.137286
354 2 0.815352 0.0917392 0.0453847
150 1 0.93183 0.0481185 0.022018
92 1 0.836334 0.0208637 0.162456
281 1 0.118126 0.498537 0.0113714
15 1 0.181326 0.399609 0.116836
269 1 0.0647291 0.291624 0.160925
267 1 0.0137179 0.450989 0.134041
212 1 0.292118 0.310157 0.17264
272 1 0.332016 0.48797 0.133728
79 1 0.49293 0.359978 0.122344
167 1 0.340914 0.355728 0.036782
106 1 0.640631 0.430814 0.150683
66 1 0.641614 0.276309 0.140634
3 1 0.716198 0.357032 0.0301787
34 1 0.60975 0.480138 0.0188731
283 1 0.956627 0.278529 0.0598762
130 1 0.873386 0.433153 0.0557161
113 1 0.873593 0.396829 0.212229
308 2 0.770202 0.38894 0.14522
88 1 0.817289 0.255403 0.13746
307 2 0.929719 0.256999 0.193464
292 2 0.792947 0.301068 0.246178
318 2 0.751069 0.468083 0.0200155
121 1 0.0377796 0.126378 0.43551
331 2 0.139592 0.175199 0.360656
21 1 0.118544 0.0438682 0.326588
122 1 0.176893 0.0568344 0.495009
111 1 0.00787704 0.197797 0.276928
116 1 0.197934 0.215395 0.474031
322 2 0.244325 0.0604813 0.303248
10 1 0.464899 0.145097 0.2587
248 1 0.326714 0.0316929 0.474185
129 1 0.472552 0.0698292 0.414103
140 1 0.273386 0.190935 0.319788
328 2 0.374553 0.119436 0.370464
30 1 0.4048 0.240357 0.344726
193 1 0.338994 0.177966 0.467955
5 1 0.479038 0.213852 0.4599
60 1 0.643798 0.0048443 0.434909
142 1 0.698674 0.222532 0.269946
22 1 0.591681 0.138272 0.341335
112 1 0.712115 0.136865 0.419825
100 1 0.95551 0.0650243 0.292116
274 1 0.750315 0.0609099 0.290312
59 1 0.848162 0.167043 0.261573
155 1 0.885887 0.141718 0.417036
118 1 0.0784102 0.410363 0.268824
264 1 0.0763114 0.43865 0.464584
340 2 0.185697 0.363583 0.495901
108 1 0.0653682 0.277957 0.400256
326 2 0.161875 0.396869 0.374099
259 1 0.181714 0.303935 0.286336
210 1 0.225292 0.447631 0.266462
302 2 0.408556 0.467925 0.478404
141 1 0.280991 0.322118 0.402221
233 1 0.306485 0.470898 0.393526
337 2 0.382451 0.310903 0.472816
58 1 0.376755 0.411256 0.259764
243 1 0.718688 0.403422 0.480041
149 1 0.603408 0.490704 0.391957
236 1 0.530037 0.476971 0.255886
255 1 0.524855 0.303345 0.266649
104 1 0.502532 0.374186 0.411471
36 1 0.619169 0.270643 0.400981
31 1 0.654998 0.376372 0.298813
138 1 0.806466 0.414619 0.358217
103 1 0.923966 0.320114 0.315683
339 2 0.954492 0.278294 0.471692
350 2 0.977167 0.408869 0.39729
214 1 0.768609 0.285145 0.37999
51 1 0.958472 0.475772 0.296784
260 1 0.859968 0.3781 0.486857
177 1 0.166342 0.0893997 0.647331
252 1 0.0874033 0.173214 0.564163
176 1 0.000404783 0.0592319 0.682945
191 1 0.0489507 0.00923081 0.558148
216 1 0.292227 0.17011 0.611436
163 1 0.39304 0.1012 0.727272
174 1 0.401561 0.242982 0.666445
205 1 0.4353 0.0950925 0.574807
44 1 0.309838 0.00812905 0.623703
14 1 0.547372 0.0111818 0.566917
189 1 0.665149 0.183344 0.642565
190 1 0.650493 0.0206065 0.682423
128 1 0.733209 0.0734847 0.557129
135 1 0.598306 0.151258 0.514375
351 2 0.535975 0.0826011 0.669972
192 1 0.538228 0.189207 0.738694
257 1 0.932348 0.22546 0.589398
179 1 0.789464 0.222698 0.555628
42 1 0.836854 0.0854029 0.684279
247 1 0.91638 0.068578 0.553095
359 2 0.140766 0.259725 0.64053
208 1 0.0528669 0.327786 0.542459
96 1 0.0283146 0.299703 0.702634
68 1 0.174362 0.381205 0.619141
223 1 0.245288 0.474138 0.531129
320 2 0.0259641 0.455796 0.630301
50 1 0.284125 0.310806 0.56255
245 1 0.298167 0.44891 0.678531
47 1 0.433641 0.386651 0.584637
349 2 0.42182 0.462514 0.705547
54 1 0.53367 0.250938 0.599142
270 1 0.673083 0.326763 0.654588
114 1 0.511818 0.362987 0.700126
56 1 0.573545 0.388489 0.547801
29 1 0.741654 0.450062 0.626204
299 2 0.683832 0.290838 0.539332
89 1 0.614315 0.456287 0.734672
215 1 0.52735 0.493689 0.627629
180 1 0.796469 0.25677 0.702083
125 1 0.924029 0.389133 0.66625
298 2 0.831087 0.325446 0.603222
296 2 0.910704 0.296625 0.738708
312 2 0.971577 0.435278 0.523041
1 1 0.10438 0.165485 0.753165
352 2 0.1395 0.0418275 0.793209
102 1 0.16782 0.169962 0.962687
107 1 0.0226677 0.0098441 0.860182
346 2 0.139107 0.24196 0.859409
277 1 0.301435 0.21856 0.778444
32 1 0.258585 0.0948558 0.846951
229 1 0.396985 0.0745638 0.928612
333 2 0.472837 0.234395 0.991503
97 1 0.331553 0.209727 0.999505
273 1 0.518915 0.194144 0.880955
184 1 0.568285 0.072864 0.825077
154 1 0.741796 0.151483 0.794464
294 2 0.505339 0.0818715 0.982511
321 2 0.668378 0.0939518 0.926393
18 1 0.701911 0.220364 0.92189
49 1 0.960318 0.173864 0.763647
99 1 0.997327 0.158458 0.927169
338 2 0.923744 0.0488009 0.780607
271 1 0.851393 0.0936521 0.888236
70 1 0.862603 0.237575 0.849338
67 1 0.82776 0.223508 0.996275
203 1 0.169705 0.325403 0.769519
311 2 0.0370502 0.435588 0.799282
178 1 0.247126 0.293028 0.914265
293 2 0.230777 0.408151 0.840738
131 1 0.118037 0.421234 0.889792
148 1 0.0225141 0.291534 0.853078
219 1 0.167289 0.483661 0.751055
145 1 0.0888276 0.308508 0.979942
347 2 0.244876 0.408714 0.972921
290 2 0.469023 0.287361 0.793682
160 1 0.401224 0.294605 0.919486
206 1 0.396651 0.386489 0.801129
202 1 0.463786 0.444755 0.97203
197 1 0.689401 0.497511 0.89607
123 1 0.533222 0.373456 0.863308
357 2 0.672714 0.37582 0.905998
288 1 0.640191 0.276964 0.786584
207 1 0.743438 0.404306 0.778018
16 1 0.57292 0.336654 0.990503
28 1 0.986718 0.462917 0.95207
23 1 0.810828 0.363816 0.928017
319 2 0.953356 0.34269 0.9273
158 1 0.924459 0.409776 0.820761
291 2 0.757774 0.290201 0.827904
251 1 0.14348 0.678022 0.096675
304 2 0.0388792 0.707122 0.192458
105 1 0.155953 0.540249 0.183888
341 2 0.243997 0.553316 0.074429
280 1 0.269888 0.648154 0.156202
235 1 0.489328 0.51431 0.112506
240 1 0.363083 0.749947 0.081944
134 1 0.467732 0.662198 0.149389
327 2 0.388759 0.59466 0.103211
143 1 0.568197 0.628265 0.248761
94 1 0.602248 0.610347 0.0778961
198 1 0.704662 0.649087 0.193762
171 1 0.528619 0.732209 0.0247022
287 1 0.914442 0.578991 0.00992559
295 2 0.847623 0.633195 0.1357
127 1 0.990199 0.596677 0.159566
225 1 0.905099 0.72622 0.224294
65 1 0.765907 0.596641 0.0115321
82 1 0.776765 0.522536 0.144187
120 1 0.216825 0.79056 0.149817
315 2 0.0685201 0.847174 0.160195
13 1 0.00355712 0.755304 0.0864313
213 1 0.16057 0.920303 0.0838281
332 2 0.205706 0.760302 0.00516988
4 1 0.153666 0.917624 0.23501
139 1 0.458355 0.859042 0.124978
62 1 0.30905 0.891593 0.0665282
222 1 0.323754 0.880501 0.232754
258 1 0.479923 0.979663 0.230647
6 1 0.694639 0.750231 0.0310783
164 1 0.591318 0.750589 0.178932
317 2 0.575326 0.904447 0.189159
37 1 0.741493 0.901145 0.23223
284 1 0.631025 0.875614 0.0736916
75 1 0.740497 0.778568 0.166781
265 1 0.847007 0.753346 0.069626
95 1 0.9948 0.907674 0.0799504
84 1 0.76847 0.907941 0.0930954
161 1 0.897381 0.879616 0.164739
323 2 0.871473 0.911172 0.0299348
324 2 0.0883806 0.533027 0.292086
256 1 0.173793 0.556124 0.41092
98 1 0.156314 0.684414 0.257378
234 1 0.0278884 0.639676 0.31014
76 1 0.125191 0.719451 0.407284
185 1 0.0321128 0.596574 0.463817
218 1 0.344158 0.734372 0.253797
194 1 0.385611 0.571228 0.257693
72 1 0.462742 0.519406 0.37168
238 1 0.274251 0.62268 0.328988
220 1 0.429283 0.669346 0.363007
230 1 0.360342 0.596686 0.464585
169 1 0.262228 0.708366 0.498872
263 1 0.504784 0.56959 0.495863
109 1 0.72002 0.57114 0.40301
342 2 0.746603 0.726914 0.451983
182 1 0.611761 0.71213 0.369409
93 1 0.688547 0.506195 0.266983
301 2 0.603608 0.60285 0.442353
261 1 0.976841 0.746573 0.442109
286 1 0.764297 0.713709 0.313042
12 1 0.856884 0.65457 0.409858
26 1 0.853116 0.579021 0.258532
187 1 0.901834 0.508716 0.423557
231 1 0.0438345 0.791175 0.27377
343 2 0.186487 0.805233 0.277018
181 1 0.00635231 0.934937 0.25149
124 1 0.0633117 0.900143 0.402364
262 1 0.227529 0.941142 0.393897
24 1 0.352129 0.998848 0.30705
241 1 0.465287 0.807 0.261521
48 1 0.452738 0.929958 0.49775
17 1 0.257421 0.780065 0.381512
87 1 0.411779 0.832677 0.395441
244 1 0.749362 0.84556 0.418229
45 1 0.625497 0.851489 0.298867
313 2 0.503051 0.764563 0.370214
356 2 0.720151 0.960433 0.355936
63 1 0.573214 0.8434 0.454096
345 2 0.542377 0.945695 0.358902
166 1 0.911385 0.820829 0.332754
266 1 0.871394 0.946938 0.295647
64 1 0.803295 0.993118 0.462849
254 1 0.950233 0.999149 0.419931
285 1 0.162495 0.735064 0.628801
77 1 0.107264 0.54416 0.597597
306 2 0.105684 0.626037 0.694737
201 1 0.235627 0.594675 0.634184
132 1 0.0150146 0.686885 0.587407
90 1 9.10924e-05 0.554077 0.724881
336 2 0.181755 0.619105 0.526402
38 1 0.388038 0.522198 0.589862
289 2 0.368537 0.605751 0.716545
305 2 0.34112 0.642594 0.597824
153 1 0.45961 0.669927 0.650731
147 1 0.325369 0.724339 0.685942
119 1 0.465028 0.728178 0.508479
126 1 0.64029 0.531715 0.531197
344 2 0.58563 0.628216 0.631699
237 1 0.738017 0.608975 0.660549
85 1 0.638156 0.730288 0.699955
275 1 0.595392 0.698957 0.537362
268 1 0.938069 0.539798 0.583216
355 2 0.768477 0.720543 0.709652
221 1 0.839182 0.678749 0.561487
242 1 0.857027 0.517571 0.726395
199 1 0.886232 0.66168 0.709141
35 1 0.804167 0.540789 0.519398
71 1 0.168939 0.822245 0.50244
196 1 0.0295892 0.801179 0.67304
228 1 0.199359 0.876437 0.645069
310 2 0.0581584 0.848549 0.539445
52 1 0.080683 0.941076 0.726598
335 2 0.182267 0.94028 0.534287
159 1 0.399646 0.820784 0.610408
309 2 0.2757 0.804068 0.584583
46 1 0.294545 0.899625 0.516382
91 1 0.454279 0.951953 0.673156
200 1 0.721692 0.766598 0.566145
232 1 0.564498 0.836384 0.627694
136 1 0.6796 0.910953 0.552955
152 1 0.73274 0.857774 0.719049
217 1 0.950443 0.920901 0.621283
33 1 0.877365 0.93672 0.749048
27 1 0.85976 0.807681 0.646983
297 2 0.888184 0.946252 0.512628
19 1 0.810562 0.959069 0.61588
81 1 0.868779 0.826617 0.500547
7 1 0.0347474 0.665661 0.974797
2 1 0.0603596 0.568581 0.859932
41 1 0.170943 0.698556 0.89715
43 1 0.206549 0.657889 0.763599
282 1 0.0463452 0.704204 0.791862
9 1 0.20643 0.530215 0.89539
276 1 0.315207 0.523176 0.801595
133 1 0.327139 0.514844 0.97284
300 2 0.281843 0.625645 0.881058
224 1 0.472746 0.563353 0.757325
186 1 0.378516 0.660471 0.829096
303 2 0.427802 0.523683 0.879005
249 1 0.446575 0.597868 0.980327
278 1 0.28228 0.658111 0.999541
360 2 0.712408 0.522528 0.768399
57 1 0.555204 0.533819 0.884333
115 1 0.613458 0.606298 0.756828
279 1 0.535053 0.682855 0.861905
55 1 0.671096 0.643346 0.904033
330 2 0.9446 0.708493 0.883368
110 1 0.827936 0.513396 0.908371
227 1 0.774157 0.612852 0.805817
209 1 0.834857 0.692188 0.91888
40 1 0.920598 0.603363 0.83983
253 1 0.0224228 0.856308 0.833665
151 1 0.156582 0.816966 0.765582
73 1 0.0914009 0.835513 0.985569
86 1 0.178471 0.90911 0.878992
157 1 0.446281 0.9834 0.809472
172 1 0.250721 0.968593 0.753455
168 1 0.473156 0.779326 0.751688
188 1 0.419778 0.763076 0.942761
165 1 0.360867 0.8678 0.761265
101 1 0.322734 0.932939 0.891165
173 1 0.278964 0.800803 0.878658
325 2 0.452555 0.850264 0.859076
53 1 0.462393 0.914695 0.976956
137 1 0.574053 0.89848 0.776239
211 1 0.730492 0.99501 0.813629
195 1 0.594487 0.986551 0.943887
358 2 0.659645 0.898088 0.860385
183 1 0.571655 0.823745 0.911277
226 1 0.703201 0.770005 0.842988
146 1 0.787512 0.837027 0.956505
239 1 0.891008 0.935718 0.899544
39 1 0.875178 0.785749 0.804153
61 1 0.950682 0.800613 0.952612
329 2 0.795566 0.893472 0.831615
175 1 0.760331 0.979073 0.963159
