ITEM: TIMESTEP
0
ITEM: NUMBER OF ATOMS
360
ITEM: BOX BOUNDS pp pp pp
0.0000000000000000e+00 6.6943295008216896e+00
0.0000000000000000e+00 6.6943295008216896e+00
0.0000000000000000e+00 6.6943295008216896e+00
ITEM: ATOMS id type xs ys zs
56 1 0.188787 0.145832 0.138061
191 1 0.0422393 0.129102 0.087919
221 1 0.0126377 0.249981 0.174004
81 1 0.0958968 0.0355725 0.209382
345 2 0.149146 0.114431 0.0174207
297 2 0.194321 0.0257285 0.142394
210 1 0.393015 0.0143355 0.164737
238 1 0.269457 0.0675892 0.234536
337 2 0.493032 0.103234 0.146047
186 1 0.362137 0.147641 0.100962
139 1 0.482679 0.0707743 0.0288522
78 1 0.497364 0.216442 0.092408
288 1 0.275251 0.229531 0.24094
165 1 0.272484 0.025392 0.0447739
147 1 0.624959 0.0799267 0.13598
277 1 0.696912 0.22401 0.147324
174 1 0.567886 0.204049 0.225821
58 1 0.610366 0.168396 0.0171688
65 1 0.754796 0.0987541 0.0472578
23 1 0.853598 0.19787 0.155797
344 2 0.880336 0.0906337 0.08272
215 1 0.818364 0.0590971 0.205202
241 1 0.964068 0.11516 0.237001
339 2 0.776513 0.240443 0.047545
21 1 0.892004 0.20561 0.00448393
22 1 0.101687 0.461414 0.0450699
329 2 0.0483115 0.371902 0.137412
75 1 0.129845 0.275643 0.0762534
41 1 0.16059 0.395987 0.163327
333 2 0.210754 0.376128 0.00850059
166 1 0.304115 0.31075 0.102591
50 1 0.434684 0.298501 0.20809
320 2 0.451729 0.339121 0.0709424
248 1 0.397924 0.444817 0.131247
275 1 0.299007 0.392522 0.243284
113 1 0.251377 0.487045 0.0659233
188 1 0.546315 0.486852 0.208678
52 1 0.556987 0.351233 0.126738
282 1 0.689075 0.396974 0.197814
309 2 0.734284 0.409453 0.0670355
73 1 0.640353 0.492849 0.0825792
177 1 0.672467 0.307469 0.0125766
279 1 0.500153 0.460054 0.0056671
36 1 0.987294 0.334234 0.0267231
263 1 0.936836 0.451423 0.127824
290 2 0.921401 0.337111 0.201206
196 1 0.822954 0.344595 0.129905
80 1 0.230913 0.00993653 0.364501
332 2 0.0896561 0.0333825 0.335616
161 1 0.147853 0.146778 0.303765
82 1 0.15425 0.0982184 0.45226
62 1 0.213063 0.239266 0.418562
44 1 0.416788 0.142989 0.252124
233 1 0.328751 0.133347 0.375277
289 2 0.397476 0.0373979 0.442084
220 1 0.492615 0.123608 0.387916
317 2 0.489222 0.230106 0.320595
118 1 0.541749 0.0386745 0.262884
273 1 0.700877 0.116106 0.278426
109 1 0.741741 0.192059 0.498912
107 1 0.637196 0.224903 0.375823
307 2 0.732112 0.109252 0.399589
138 1 0.62871 0.101135 0.474644
258 1 0.998234 0.126332 0.399868
124 1 0.903487 0.221027 0.460839
55 1 0.835845 0.148709 0.344216
319 2 0.880074 0.063931 0.424584
269 1 0.780667 0.0298681 0.499154
331 2 0.149217 0.4884 0.482248
93 1 0.127806 0.285919 0.267243
1 1 0.0509293 0.275266 0.417566
146 1 0.116556 0.42418 0.380243
90 1 0.0120054 0.385858 0.275136
327 2 0.246614 0.357812 0.353125
11 1 0.227778 0.377293 0.480331
145 1 0.296182 0.497428 0.39104
12 1 0.43333 0.451732 0.319878
213 1 0.373214 0.289066 0.345565
270 1 0.378398 0.388461 0.463782
249 1 0.532396 0.413537 0.443698
7 1 0.506104 0.268688 0.458702
181 1 0.664814 0.401888 0.372687
150 1 0.554144 0.335561 0.28849
350 2 0.550605 0.496383 0.349656
66 1 0.836838 0.415827 0.2606
31 1 0.806199 0.328274 0.412627
287 1 0.755803 0.28341 0.278049
64 1 0.94311 0.389048 0.424782
37 1 0.926288 0.26692 0.302849
162 1 0.786457 0.49687 0.376864
38 1 0.0921912 0.0492193 0.592886
293 2 0.087271 0.16629 0.667956
19 1 0.199385 0.163035 0.586595
228 1 0.0466298 0.201288 0.55316
47 1 0.153484 0.101228 0.745658
45 1 0.247314 0.0271324 0.644781
205 1 0.474144 0.13067 0.673619
360 2 0.258503 0.16893 0.696142
352 2 0.335284 0.129768 0.606817
278 1 0.363011 0.232524 0.684943
2 1 0.336614 0.245363 0.527077
79 1 0.346076 0.0758258 0.735616
9 1 0.450446 0.130078 0.532153
281 1 0.405397 0.0132222 0.595666
87 1 0.295624 0.0697903 0.509176
155 1 0.58468 0.213652 0.576537
102 1 0.715191 0.106414 0.614497
106 1 0.582348 0.0360861 0.609683
256 1 0.610307 0.121979 0.737627
299 2 0.704512 0.235493 0.624822
142 1 0.938871 0.0783485 0.537339
216 1 0.977881 0.102687 0.687082
88 1 0.860074 0.180071 0.608786
303 2 0.842534 0.1303 0.738635
185 1 0.926137 0.239423 0.719516
71 1 0.85957 0.00102484 0.657634
13 1 0.202169 0.275717 0.732295
197 1 0.0648153 0.311059 0.659029
61 1 0.183866 0.411983 0.634824
310 2 0.0423305 0.45307 0.67759
298 2 0.242945 0.295342 0.593378
328 2 0.134424 0.300459 0.507654
86 1 0.068152 0.396139 0.5345
346 2 0.461381 0.266965 0.584612
135 1 0.337429 0.372418 0.623437
235 1 0.430919 0.42516 0.720737
110 1 0.509672 0.283075 0.71269
260 1 0.526481 0.397691 0.591945
123 1 0.653314 0.325482 0.701182
43 1 0.676889 0.46816 0.592243
30 1 0.660919 0.341388 0.512706
115 1 0.799214 0.419943 0.522496
158 1 0.929891 0.480569 0.560599
349 2 0.813704 0.293901 0.538002
17 1 0.941281 0.387559 0.71569
214 1 0.927272 0.323262 0.575161
264 1 0.799475 0.343087 0.661048
125 1 0.820456 0.498563 0.662202
108 1 0.0563235 0.191037 0.951354
208 1 0.0505524 0.0637641 0.853265
305 2 0.151886 0.20491 0.869483
85 1 0.0470207 0.216298 0.796099
137 1 0.214006 0.0761016 0.913798
257 1 0.232385 0.214084 0.977265
262 1 0.357765 0.111938 0.936793
194 1 0.279746 0.18236 0.817534
243 1 0.43529 0.173634 0.814643
16 1 0.392648 0.240261 0.987907
323 2 0.493814 0.182694 0.944359
330 2 0.411094 0.0255389 0.840001
149 1 0.633272 0.0138434 0.982578
250 1 0.747657 0.216596 0.751572
343 2 0.645527 0.112525 0.891276
120 1 0.521415 0.0737765 0.882217
3 1 0.746315 0.201761 0.9189
271 1 0.746447 0.0558952 0.763772
230 1 0.595664 0.24051 0.843612
151 1 0.909033 0.0219776 0.8101
119 1 0.772259 0.0300059 0.917454
76 1 0.943726 0.0714852 0.968413
180 1 0.885481 0.164271 0.859834
4 1 0.191689 0.469086 0.923756
313 2 0.0686735 0.4449 0.93317
105 1 0.12068 0.391078 0.794239
209 1 0.121277 0.319245 0.920103
140 1 0.262095 0.323079 0.8624
315 2 0.32611 0.336812 0.754378
342 2 0.355205 0.44563 0.85831
14 1 0.260194 0.452344 0.763253
286 1 0.414794 0.314 0.846838
104 1 0.374894 0.393751 0.97243
229 1 0.734367 0.342013 0.847003
183 1 0.693187 0.479777 0.774319
28 1 0.642761 0.465979 0.918403
154 1 0.526958 0.325323 0.95766
100 1 0.534849 0.404865 0.824618
358 2 0.855192 0.311429 0.808716
143 1 0.990265 0.47802 0.828854
70 1 0.842986 0.444781 0.837482
219 1 0.83438 0.358954 0.976457
32 1 0.944948 0.472462 0.97389
26 1 0.968865 0.323655 0.870479
232 1 0.0110248 0.699297 0.0898229
218 1 0.142612 0.602243 0.109763
341 2 0.0632006 0.656106 0.198307
336 2 0.0151317 0.570319 0.0694998
283 1 0.0501361 0.522496 0.194855
354 2 0.203737 0.594043 0.000151351
127 1 0.428388 0.584225 0.214262
253 1 0.290027 0.621616 0.158472
234 1 0.403896 0.714083 0.110346
148 1 0.396061 0.578597 0.0574719
99 1 0.282106 0.691861 0.0128054
54 1 0.522895 0.657366 0.0237837
130 1 0.617607 0.647375 0.163982
92 1 0.74728 0.654993 0.0775756
356 2 0.526514 0.557395 0.106207
33 1 0.78251 0.679454 0.231757
252 1 0.902748 0.61067 0.0341995
168 1 0.919296 0.600031 0.18844
295 2 0.865999 0.70942 0.123009
184 1 0.783461 0.515669 0.139317
204 1 0.193525 0.780518 0.121949
157 1 0.208194 0.890007 0.00586637
212 1 0.0963579 0.904731 0.133953
169 1 0.0668669 0.780375 0.215443
222 1 0.0951175 0.998334 0.00356504
94 1 0.492909 0.821918 0.0325113
59 1 0.262749 0.919059 0.201135
51 1 0.339564 0.840117 0.0822899
122 1 0.426067 0.872895 0.210435
69 1 0.309291 0.752285 0.232728
240 1 0.644274 0.76717 0.0383428
347 2 0.678634 0.774562 0.203006
259 1 0.554328 0.790827 0.169467
322 2 0.61563 0.892286 0.0482954
231 1 0.532349 0.956646 0.126469
217 1 0.703743 0.950879 0.130527
95 1 0.963352 0.986882 0.130868
49 1 0.770234 0.803949 0.120071
296 2 0.975265 0.943914 0.0108688
244 1 0.862987 0.908125 0.215794
284 1 0.935454 0.838942 0.0924065
268 1 0.831577 0.967642 0.0548799
245 1 0.173367 0.659922 0.275966
190 1 0.189801 0.621719 0.427381
224 1 0.008769 0.670881 0.313718
126 1 0.0354222 0.545131 0.456079
325 2 0.0887796 0.564124 0.33184
40 1 0.189467 0.502038 0.272296
163 1 0.0498666 0.705808 0.457834
292 2 0.328072 0.519349 0.265865
353 2 0.283604 0.729175 0.393229
236 1 0.446453 0.597118 0.411974
285 1 0.318998 0.624913 0.325246
200 1 0.456261 0.726744 0.267182
179 1 0.410299 0.749076 0.413812
35 1 0.649281 0.540345 0.445413
53 1 0.691384 0.546258 0.262036
114 1 0.715679 0.664085 0.368677
101 1 0.555735 0.684929 0.466481
173 1 0.556851 0.61547 0.311404
306 2 0.890939 0.508212 0.44185
247 1 0.95597 0.517717 0.31878
348 2 0.825654 0.555304 0.256901
128 1 0.87749 0.628712 0.384381
227 1 0.00804011 0.832867 0.373059
301 2 0.00794321 0.888319 0.252666
316 2 0.19635 0.805213 0.268195
280 1 0.0645851 0.965905 0.448606
111 1 0.16515 0.774868 0.387828
261 1 0.110801 0.921921 0.300982
57 1 0.286923 0.864694 0.340413
265 1 0.382433 0.907609 0.475917
199 1 0.494812 0.887025 0.356772
18 1 0.384527 0.982688 0.315277
187 1 0.612194 0.902191 0.254978
359 2 0.713025 0.994935 0.262707
266 1 0.548783 0.844473 0.495954
225 1 0.519945 0.991483 0.465039
312 2 0.621501 0.867136 0.393835
74 1 0.689021 0.781031 0.47201
192 1 0.596732 0.75655 0.321029
29 1 0.654442 0.986274 0.379883
321 2 0.752268 0.899043 0.440197
207 1 0.909904 0.774169 0.254467
121 1 0.806683 0.977702 0.350556
182 1 0.902475 0.929195 0.469701
324 2 0.881022 0.867696 0.34149
77 1 0.857012 0.773286 0.43893
27 1 0.765326 0.818976 0.320348
156 1 0.956886 0.985078 0.330852
226 1 0.160963 0.720541 0.743952
251 1 0.173246 0.704232 0.561766
202 1 0.103367 0.538648 0.588137
6 1 0.0466256 0.681668 0.647865
164 1 0.242669 0.602298 0.682791
103 1 0.249036 0.530481 0.546014
8 1 0.125408 0.530809 0.741341
116 1 0.398974 0.642015 0.651924
308 2 0.45337 0.659175 0.53104
357 2 0.319539 0.504493 0.654247
144 1 0.404271 0.511944 0.555075
195 1 0.310758 0.656674 0.522115
42 1 0.68969 0.605256 0.665827
242 1 0.54155 0.690192 0.638171
326 2 0.691073 0.659092 0.537867
10 1 0.553348 0.551122 0.553674
96 1 0.553466 0.54269 0.723665
160 1 0.797693 0.580641 0.508561
172 1 0.975093 0.552793 0.688906
72 1 0.892259 0.662527 0.709134
193 1 0.795488 0.715274 0.597367
276 1 0.930535 0.668348 0.549184
48 1 0.10453 0.839083 0.504957
141 1 0.0753106 0.830947 0.664986
5 1 0.212243 0.876501 0.743283
294 2 0.136335 0.935808 0.619805
46 1 0.0705262 0.971665 0.732441
170 1 0.220607 0.932364 0.509452
134 1 0.305702 0.779457 0.669851
178 1 0.427287 0.791591 0.581593
132 1 0.368937 0.920797 0.712643
335 2 0.304906 0.897287 0.607422
189 1 0.441394 0.761959 0.739021
246 1 0.499591 0.996781 0.744341
133 1 0.280541 0.799514 0.505643
167 1 0.743753 0.783781 0.746014
89 1 0.528454 0.887697 0.65015
20 1 0.65387 0.785504 0.619781
39 1 0.71208 0.941344 0.676697
91 1 0.667238 0.929343 0.529681
300 2 0.978097 0.811987 0.505033
311 2 0.972237 0.760283 0.734501
355 2 0.827872 0.876498 0.686001
255 1 0.80335 0.86598 0.57009
24 1 0.92584 0.807439 0.629196
129 1 0.990979 0.934863 0.596464
131 1 0.0337285 0.658452 0.798302
68 1 0.0687559 0.583087 0.951761
83 1 0.182502 0.624685 0.87267
63 1 0.135095 0.718287 0.99407
203 1 0.384694 0.554929 0.786635
351 2 0.484574 0.647772 0.778958
237 1 0.316521 0.542278 0.930943
254 1 0.316749 0.686702 0.810778
198 1 0.496283 0.575588 0.89469
291 2 0.396676 0.657495 0.938821
34 1 0.506789 0.726498 0.879941
153 1 0.622735 0.67238 0.793671
176 1 0.655011 0.614236 0.955528
338 2 0.612082 0.555985 0.825396
84 1 0.729958 0.747599 0.904928
175 1 0.781945 0.50602 0.979348
302 2 0.884096 0.550086 0.765608
274 1 0.994753 0.718825 0.930981
136 1 0.779222 0.61448 0.807963
272 1 0.914796 0.603073 0.878092
304 2 0.797446 0.639794 0.945983
97 1 0.0495288 0.857125 0.978196
340 2 0.230858 0.995094 0.775477
239 1 0.0590293 0.821558 0.82797
334 2 0.00423654 0.940667 0.869586
15 1 0.147754 0.944994 0.860843
211 1 0.224261 0.798609 0.878468
267 1 0.372169 0.784509 0.946468
117 1 0.29435 0.949165 0.879338
314 2 0.344543 0.821892 0.808921
223 1 0.45983 0.886974 0.856043
25 1 0.398453 0.954779 0.990125
171 1 0.740398 0.885655 0.968926
159 1 0.584888 0.816016 0.773454
98 1 0.601151 0.867368 0.918036
318 2 0.516524 0.961936 0.965535
206 1 0.631836 0.978232 0.826754
152 1 0.863284 0.762628 0.834169
67 1 0.926607 0.884191 0.766385
60 1 0.898718 0.884317 0.928041
201 1 0.776876 0.907986 0.813678
112 1 0.847441 0.760714 0.996046
ITEM: TIMESTEP
300000
ITEM: NUMBER OF ATOMS
360
ITEM: BOX BOUNDS pp pp pp
0.0000000000000000e+00 6.6943295008216896e+00
0.0000000000000000e+00 6.6943295008216896e+00
0.0000000000000000e+00 6.6943295008216896e+00
ITEM: ATOMS id type xs ys zs
191 1 0.0885161 0.063867 0.193803
165 1 0.23175 0.110208 0.161853
309 2 0.0382966 0.180214 0.188976
257 1 0.128573 0.208934 0.0733603
333 2 0.0685315 0.0989368 0.0492553
248 1 0.45188 0.308223 0.456812
211 1 0.169258 0.0350936 0.0329998
331 2 0.296079 0.239294 0.225384
328 2 0.296159 0.0589868 0.0649049
332 2 0.446696 0.217433 0.183941
140 1 0.387853 0.124042 0.123409
345 2 0.513103 0.0848129 0.0447456
16 1 0.287403 0.234377 0.0925339
288 1 0.37879 0.322757 0.198763
338 2 0.734141 0.47162 0.210855
78 1 0.53706 0.135734 0.162543
118 1 0.694139 0.0839674 0.16227
277 1 0.646001 0.219485 0.0753463
166 1 0.553322 0.315475 0.187073
43 1 0.873067 0.447276 0.47676
273 1 0.799125 0.219265 0.173073
21 1 0.966794 0.186162 0.0769538
181 1 0.931734 0.057647 0.226526
23 1 0.831428 0.0520128 0.112313
326 2 0.811195 0.0945969 0.228789
254 1 0.0639744 0.322659 0.151371
320 2 0.147273 0.364744 0.0585479
221 1 0.0652155 0.46335 0.0540321
290 2 0.956855 0.364689 0.115326
316 2 0.208224 0.0249153 0.24302
104 1 0.438045 0.270009 0.06673
250 1 0.728124 0.35565 0.474803
256 1 0.223556 0.351434 0.18402
54 1 0.307039 0.378157 0.0491801
113 1 0.473161 0.415284 0.106952
74 1 0.609291 0.0298068 0.458047
53 1 0.699353 0.354054 0.205698
313 2 0.610768 0.425054 0.13462
37 1 0.731256 0.441305 0.0699621
52 1 0.582974 0.348856 0.0145692
298 2 0.0647797 0.47578 0.488034
268 1 0.935842 0.26848 0.204193
339 2 0.727139 0.308962 0.0925895
22 1 0.983343 0.428354 0.226075
12 1 0.843786 0.397478 0.189697
73 1 0.887644 0.457783 0.0563495
258 1 0.858247 0.306442 0.0691978
241 1 0.150896 0.215884 0.247433
142 1 0.153875 0.0447642 0.349803
38 1 0.13988 0.194204 0.414646
124 1 0.0240795 0.142072 0.310531
88 1 0.0184194 0.024021 0.436348
214 1 0.85763 0.292637 0.496185
161 1 0.975111 0.194537 0.455642
238 1 0.409469 0.0753956 0.265778
355 2 0.250003 0.117421 0.42743
44 1 0.273522 0.144371 0.310317
50 1 0.428847 0.209366 0.311156
278 1 0.33587 0.20734 0.440425
359 2 0.383569 0.101205 0.380053
133 1 0.481776 0.015652 0.386165
307 2 0.786353 0.281056 0.285502
29 1 0.65519 0.207382 0.245851
62 1 0.482545 0.148351 0.485943
220 1 0.581505 0.104933 0.322216
349 2 0.636918 0.153336 0.435599
264 1 0.731245 0.096218 0.344939
327 2 0.235795 0.278486 0.485078
109 1 0.871641 0.178976 0.3147
289 2 0.465404 0.00704668 0.17071
119 1 0.794122 0.172492 0.0209605
115 1 0.990858 0.477913 0.371818
19 1 0.148484 0.368206 0.436902
275 1 0.118354 0.4193 0.286204
356 2 0.205545 0.466553 0.382879
75 1 0.0253646 0.309416 0.325138
282 1 0.883408 0.361858 0.339129
93 1 0.253007 0.305246 0.33419
145 1 0.311464 0.388572 0.477178
146 1 0.321927 0.432301 0.331945
342 2 0.367601 0.308976 0.357689
127 1 0.446785 0.460109 0.444396
270 1 0.480076 0.368683 0.313287
150 1 0.56681 0.247878 0.36402
337 2 0.657372 0.331757 0.339456
107 1 0.732295 0.240156 0.387295
249 1 0.582605 0.39474 0.426131
162 1 0.744265 0.425276 0.336969
173 1 0.603834 0.452547 0.26644
228 1 0.00497104 0.361742 0.469603
269 1 0.832473 0.128043 0.459681
233 1 0.294348 -0.000937791 0.372336
218 1 0.184307 0.494291 0.139223
99 1 0.349804 0.476317 0.188303
225 1 0.347809 0.0629468 0.49053
79 1 0.175672 0.0594687 0.661525
47 1 0.0624948 0.111447 0.558345
13 1 0.239053 0.234987 0.692156
143 1 0.0812392 0.200728 0.699972
197 1 0.125645 0.285968 0.568892
87 1 0.242898 0.172172 0.553282
201 1 0.686274 0.0674962 0.995498
123 1 0.339699 0.107132 0.673774
317 2 0.369396 0.159639 0.570617
110 1 0.476999 0.169542 0.653324
323 2 0.371836 0.230997 0.690584
236 1 0.537766 0.492232 0.564481
205 1 0.491656 0.0127605 0.57995
155 1 0.527882 0.0493281 0.728054
199 1 0.612959 0.109823 0.606929
91 1 0.762502 0.159799 0.70777
138 1 0.624087 0.241388 0.686808
89 1 0.820884 0.291118 0.664923
294 2 0.996679 0.102897 0.679524
106 1 0.76304 0.0561684 0.585926
76 1 0.893542 0.148455 0.593227
280 1 0.203473 0.0229953 0.499201
125 1 0.711688 0.333659 0.767237
2 1 0.0669521 0.427645 0.607484
26 1 0.237426 0.37856 0.619809
85 1 0.129521 0.347075 0.726658
9 1 0.358531 0.283282 0.582865
202 1 0.375534 0.462589 0.590356
10 1 0.494508 0.35483 0.61843
11 1 0.333648 0.37384 0.740056
58 1 0.855662 0.356983 0.816118
160 1 0.188016 0.485715 0.52183
30 1 0.648846 0.39789 0.600988
213 1 0.594521 0.26646 0.518638
102 1 0.736054 0.205649 0.550473
183 1 0.826843 0.443165 0.650284
90 1 0.974174 0.274072 0.59561
86 1 0.958975 0.362234 0.713588
358 2 0.93038 0.399176 0.59044
185 1 0.926736 0.190208 0.73221
65 1 0.5533 0.172394 0.959505
315 2 0.159798 0.0783157 0.915446
194 1 0.164838 0.206439 0.849092
208 1 0.101895 0.0786868 0.797338
4 1 0.0599542 0.154844 0.946516
56 1 0.250032 0.153699 0.962509
14 1 0.256324 0.0963336 0.805358
186 1 0.409919 0.138879 0.973905
120 1 0.480935 0.161664 0.820389
217 1 0.511389 0.0207736 0.916625
149 1 0.642492 0.133943 0.806699
347 2 0.683719 0.180965 0.936137
230 1 0.777678 0.223438 0.846732
180 1 0.918595 0.202285 0.900484
360 2 0.0237292 0.168608 0.829874
271 1 0.965994 0.0527342 0.817845
108 1 0.908738 0.0642774 0.981784
3 1 0.799365 0.0607723 0.836005
66 1 0.815795 0.47353 0.914362
184 1 0.459532 0.454 0.967251
206 1 0.866767 0.028581 0.706958
203 1 0.00750018 0.303729 0.852128
329 2 0.101639 0.42171 0.9389
357 2 0.228939 0.312678 0.812502
219 1 0.196027 0.452115 0.826714
235 1 0.19741 0.310392 0.960107
8 1 0.0465811 0.478942 0.776446
100 1 0.464711 0.296154 0.752901
260 1 0.331945 0.225272 0.827641
174 1 0.450999 0.446218 0.80688
286 1 0.309564 0.372337 0.887578
262 1 0.449089 0.301699 0.91506
314 2 0.320985 0.27141 0.957971
299 2 0.546177 0.393173 0.897499
272 1 0.592984 0.435946 0.766317
243 1 0.616841 0.292284 0.887222
154 1 0.667874 0.441782 0.903445
36 1 0.97147 0.451512 0.912851
177 1 0.738619 0.330715 0.958377
293 2 0.911847 0.322355 0.947154
139 1 0.387862 0.00638613 0.812444
72 1 0.742182 0.496267 0.78563
134 1 0.207863 0.480107 0.986103
132 1 0.668572 0.0112743 0.704122
263 1 0.0374101 0.323976 0.999858
148 1 0.214532 0.674769 0.19927
68 1 0.176452 0.619952 0.0434464
291 2 0.0822373 0.581079 0.123825
169 1 0.00571776 0.640483 0.0253292
204 1 0.00595966 0.68806 0.200043
245 1 0.0860989 0.564472 0.245961
267 1 0.315037 0.697234 0.0900478
351 2 0.285817 0.577715 0.139352
237 1 0.334098 0.550195 0.0187649
41 1 0.373433 0.631654 0.2299
122 1 0.483445 0.573381 0.142861
159 1 0.602663 0.511499 0.0242666
190 1 0.467236 0.731611 0.114168
239 1 0.60979 0.68934 0.0203
304 2 0.580766 0.690956 0.150085
252 1 0.642604 0.557925 0.161103
284 1 0.704327 0.687236 0.157637
350 2 0.711612 0.60011 0.0412561
25 1 0.313984 0.986807 0.180356
279 1 0.802162 0.566197 0.142236
112 1 0.871423 0.710679 0.105587
1 1 0.959596 0.557371 0.141333
33 1 0.834207 0.679752 0.25717
81 1 0.123434 0.769247 0.0872174
325 2 0.996642 0.757727 0.0668843
51 1 0.141882 0.929144 0.150301
330 2 0.0656945 0.886171 0.0567542
111 1 0.118424 0.783426 0.253122
40 1 0.252521 0.83406 0.164902
318 2 0.259848 0.937361 0.0890165
308 2 0.363037 0.768778 0.190215
130 1 0.446562 0.513001 0.299103
231 1 0.429 0.884553 0.163909
344 2 0.805445 0.821219 0.0726343
287 1 0.868058 0.511399 0.289129
163 1 0.982658 0.572197 0.493568
240 1 0.605052 0.810956 0.122022
324 2 0.66989 0.890857 0.226106
147 1 0.577578 0.972942 0.068253
215 1 0.576894 0.983762 0.22318
95 1 0.715998 0.915074 0.106682
319 2 0.540273 0.860915 0.219913
80 1 0.00983787 0.845712 0.161433
242 1 0.842184 0.840344 0.45208
300 2 0.904828 0.792093 0.200157
244 1 0.880285 0.9175 0.175132
121 1 0.763994 0.980148 0.245995
212 1 0.900433 0.850116 0.315508
71 1 0.771082 0.974405 0.454376
306 2 0.0694062 0.666973 0.449551
285 1 0.174588 0.680997 0.352382
158 1 0.110741 0.555968 0.399658
283 1 0.22973 0.552286 0.28708
292 2 0.301711 0.643195 0.335147
103 1 0.290032 0.709766 0.453267
224 1 0.449326 0.644742 0.38728
126 1 0.306977 0.549113 0.432835
97 1 0.911136 0.879491 0.0219684
259 1 0.541133 0.632004 0.273817
168 1 0.719931 0.585224 0.303544
200 1 0.577749 0.556339 0.396944
295 2 0.6298 0.669654 0.361919
188 1 0.716584 0.505174 0.489359
227 1 0.980942 0.640362 0.342403
348 2 0.895574 0.736401 0.359464
35 1 0.837137 0.621043 0.41434
101 1 0.939561 0.724049 0.485397
302 2 0.194023 0.629335 0.48869
94 1 0.347245 0.852969 0.0330702
156 1 0.0260742 0.956722 0.290693
207 1 0.0372212 0.790007 0.385621
261 1 0.122269 0.91091 0.450084
297 2 0.18882 0.80208 0.392641
82 1 0.199817 0.908815 0.305255
322 2 0.656028 0.996213 0.327539
234 1 0.38848 0.903817 0.307336
353 2 0.396113 0.940077 0.445826
265 1 0.28772 0.860617 0.456573
253 1 0.463362 0.765267 0.27608
59 1 0.299128 0.772191 0.30398
18 1 0.415095 0.807373 0.417413
266 1 0.504554 0.898874 0.483952
128 1 0.624347 0.76505 0.266311
77 1 0.555238 0.74107 0.440003
114 1 0.741628 0.742068 0.368104
187 1 0.549355 0.884087 0.343523
49 1 0.706954 0.88609 0.343331
301 2 0.943367 0.906247 0.434079
27 1 0.775685 0.818396 0.214866
55 1 0.994608 0.996384 0.0858339
312 2 0.537237 0.629007 0.490393
57 1 0.683211 0.657525 0.484169
210 1 0.417188 0.993245 0.0538413
196 1 0.755048 0.721652 0.00262346
193 1 0.679917 0.83173 0.475436
31 1 0.891195 0.995369 0.36402
251 1 0.0996874 0.616751 0.576261
164 1 0.193647 0.664965 0.722677
92 1 0.0359173 0.624049 0.728496
222 1 0.90605 0.914198 0.857351
171 1 0.65956 0.845347 0.968424
17 1 0.270848 0.597183 0.588899
144 1 0.384707 0.670265 0.696307
192 1 0.414613 0.604869 0.531019
7 1 0.316702 0.538075 0.73561
5 1 0.444762 0.763728 0.57625
96 1 0.502402 0.561413 0.699071
39 1 0.570085 0.669371 0.6083
69 1 0.668096 0.540666 0.645439
311 2 0.697254 0.673441 0.635063
167 1 0.630792 0.841736 0.800981
153 1 0.473872 0.610708 0.99362
172 1 0.936416 0.701106 0.632067
136 1 0.797008 0.612297 0.698535
247 1 0.833323 0.587032 0.560108
70 1 0.953347 0.545573 0.635409
336 2 0.914945 0.627442 0.747564
195 1 0.0683892 0.768018 0.657074
141 1 0.183379 0.891184 0.605913
305 2 0.148259 0.956581 0.735795
276 1 0.0113989 0.869642 0.540616
151 1 0.0381688 0.967188 0.671167
343 2 0.096426 0.989094 0.553298
209 1 0.208882 0.829566 0.744715
189 1 0.506799 0.826804 0.985311
6 1 0.266783 0.766241 0.606218
170 1 0.386567 0.907231 0.579076
246 1 0.284196 0.961714 0.718673
335 2 0.406877 0.989302 0.680334
45 1 0.379763 0.821409 0.719877
274 1 0.778053 0.919493 0.766001
20 1 0.512261 0.894685 0.686267
321 2 0.583225 0.817604 0.567746
281 1 0.672838 0.803947 0.656181
182 1 0.644305 0.939328 0.572972
98 1 0.662665 0.989119 0.861667
131 1 0.955027 0.747851 0.798703
24 1 0.788396 0.902494 0.600784
152 1 0.802012 0.740443 0.565333
67 1 0.933504 0.85909 0.685649
303 2 0.889802 0.837358 0.566197
216 1 0.91105 0.991617 0.557196
34 1 0.80484 0.768313 0.720296
341 2 0.101925 0.711417 0.971136
116 1 0.0900484 0.559515 0.920077
310 2 0.139414 0.572491 0.798516
226 1 0.230242 0.746465 0.939872
129 1 0.10297 0.705916 0.838216
61 1 0.29621 0.71828 0.813118
135 1 0.24877 0.591126 0.88194
63 1 0.381914 0.732626 0.943574
28 1 0.421902 0.603585 0.836165
64 1 0.854848 0.603626 0.989433
255 1 0.665359 0.648062 0.771791
176 1 0.547158 0.540209 0.874937
198 1 0.55989 0.70506 0.874794
178 1 0.689631 0.599079 0.922039
334 2 0.686594 0.729214 0.90362
105 1 0.16546 0.521973 0.682228
179 1 0.524395 0.752354 0.734367
84 1 0.792365 0.957307 0.970852
42 1 0.811625 0.660223 0.850705
32 1 0.967863 0.599796 0.865834
175 1 0.910387 0.736467 0.951358
354 2 0.344025 0.506639 0.897232
48 1 0.139142 0.75299 0.506339
15 1 0.185946 0.883889 0.999491
137 1 0.0561954 0.987816 0.931006
340 2 0.15192 0.831261 0.876076
157 1 0.0431737 0.810625 0.945017
60 1 0.0603156 0.86377 0.791291
117 1 0.18995 0.957355 0.851087
223 1 0.299481 0.98071 0.956925
346 2 0.421794 0.728704 0.816204
46 1 0.317204 0.869625 0.860756
83 1 0.469324 0.855905 0.840683
296 2 0.422199 0.916099 0.941319
232 1 0.78623 0.820285 0.890783
229 1 0.890906 0.497884 0.773524
352 2 0.287727 0.995162 0.595209
ITEM: TIMESTEP
600000
ITEM: NUMBER OF ATOMS
360
ITEM: BOX BOUNDS pp pp pp
0.0000000000000000e+00 6.6943295008216896e+00
0.0000000000000000e+00 6.6943295008216896e+00
0.0000000000000000e+00 6.6943295008216896e+00
ITEM: ATOMS id type xs ys zs
316 2 0.16039 0.153728 0.15783
181 1 0.0787894 0.104011 0.0582859
51 1 0.105935 0.0415029 0.22008
21 1 0.115196 0.252479 0.106376
22 1 0.240444 0.1436 0.0424459
241 1 0.249679 0.249396 0.212534
165 1 0.270482 0.0846784 0.189643
16 1 0.371391 0.18522 0.111451
217 1 0.417944 0.0296367 0.0421526
210 1 0.416091 0.0295369 0.198172
177 1 0.0444058 0.349871 0.0206605
154 1 0.746713 0.383503 0.0177912
91 1 0.677373 0.083282 0.129652
147 1 0.528728 0.126108 0.183725
290 2 0.941711 0.0923012 0.0724642
235 1 0.527041 0.154519 0.0379361
125 1 0.72476 0.230572 0.0847063
30 1 0.66861 0.194259 0.242144
132 1 0.98294 0.187518 0.154112
66 1 0.80977 0.109036 0.0338373
220 1 0.825769 0.175407 0.191449
53 1 0.886471 0.272677 0.0602104
339 2 0.0237718 0.216569 0.0316088
345 2 0.594437 0.0270014 0.0182863
43 1 0.925284 0.41711 0.311166
254 1 0.178774 0.387524 0.121192
331 2 0.126329 0.312384 0.216732
293 2 0.0577328 0.454381 0.105568
247 1 0.989931 0.428435 0.456984
355 2 0.302106 0.327845 0.111413
124 1 0.94295 0.25518 0.287308
288 1 0.34182 0.417623 0.198051
189 1 0.422758 0.334602 0.0964701
146 1 0.290054 0.436818 0.0330715
223 1 0.434157 0.269251 0.240893
65 1 0.568166 0.26908 0.135696
54 1 0.585742 0.422389 0.0744066
299 2 0.506882 0.374272 0.19661
273 1 0.695131 0.352663 0.190561
332 2 0.242397 0.329831 0.49215
109 1 -0.00405347 0.339818 0.17526
107 1 0.850652 0.36379 0.18069
29 1 0.903554 0.430931 0.0401766
27 1 0.815155 0.0187769 0.183732
55 1 0.100212 0.192779 0.267533
156 1 0.230394 0.0982067 0.340707
48 1 0.0734626 0.0469183 0.39008
261 1 0.039637 0.221371 0.433457
307 2 0.946706 0.311593 0.408252
111 1 0.272288 0.0131043 0.457705
248 1 0.380643 0.138374 0.303994
106 1 0.412597 0.070884 0.450803
142 1 0.307681 0.210573 0.442995
166 1 0.452912 0.265501 0.397178
76 1 0.630241 0.0386813 0.272428
50 1 0.535693 0.155296 0.343342
71 1 0.637412 0.0489992 0.422175
183 1 0.68507 0.20861 0.406149
269 1 0.763632 0.0969585 0.499637
335 2 0.97457 0.101496 0.452775
127 1 0.786544 0.11843 0.331487
249 1 0.881579 0.191746 0.424531
191 1 0.949472 0.0944726 0.310388
115 1 0.0656801 0.470142 0.231876
275 1 0.199457 0.409707 0.277263
356 2 0.14969 0.429009 0.403934
280 1 0.181511 0.281805 0.390932
214 1 0.0625827 0.344039 0.32808
150 1 0.558699 0.166537 0.499265
287 1 0.78244 0.46181 0.299321
162 1 0.785561 0.283002 0.318525
126 1 0.26993 0.439439 0.447907
104 1 0.461893 0.408029 0.309213
292 2 0.315936 0.455864 0.328339
202 1 0.324969 0.327627 0.33914
327 2 0.396151 0.397408 0.418301
282 1 0.843312 0.381865 0.440242
52 1 0.591334 0.459006 0.23356
130 1 0.51662 0.388415 0.465837
118 1 0.581054 0.304408 0.297295
337 2 0.567533 0.272577 0.429603
349 2 0.553928 0.482995 0.366719
188 1 0.674344 0.374642 0.400802
270 1 0.461151 0.487561 0.136845
314 2 0.27548 0.0321248 0.0204481
320 2 0.422064 0.240446 0.00675211
278 1 0.17317 0.130341 0.49627
87 1 0.159911 0.149022 0.692523
9 1 0.0606587 0.213043 0.588159
38 1 0.235694 0.241701 0.585767
359 2 0.0987554 0.0817621 0.600699
6 1 0.225849 0.0310408 0.625256
143 1 1.00404 0.0917197 0.709638
151 1 1.00947 0.00801404 0.53244
317 2 0.299193 0.114041 0.542624
120 1 0.323237 0.141682 0.680236
250 1 0.423278 0.177286 0.564963
138 1 0.479023 0.217268 0.726243
233 1 0.382454 0.00761228 0.591215
100 1 0.51248 0.0782673 0.659228
358 2 0.66589 0.100702 0.703367
272 1 0.617586 0.203857 0.653562
222 1 0.63615 0.0634167 0.580621
322 2 0.680013 0.183472 0.53405
353 2 0.519855 0.0132405 0.777623
74 1 0.763749 0.145829 0.635493
47 1 0.923051 0.140362 0.56856
14 1 0.121035 0.219874 0.951304
360 2 0.876207 0.102592 0.68197
149 1 0.794321 0.0296893 0.747605
62 1 0.378077 0.326925 0.520694
203 1 0.134736 0.324336 0.668153
90 1 0.0394858 0.4469 0.629205
158 1 0.247936 0.398589 0.590151
323 2 0.247253 0.242937 0.710669
7 1 0.393299 0.473012 0.552319
2 1 0.361843 0.299066 0.670794
286 1 0.371124 0.467129 0.697892
160 1 0.495994 0.376907 0.670616
328 2 0.506823 0.287244 0.574554
96 1 0.637011 0.458147 0.731124
329 2 0.611444 0.340585 0.650551
213 1 0.632155 0.466351 0.562433
311 2 0.744832 0.387559 0.559261
258 1 0.74029 0.325067 0.67724
243 1 0.636514 0.310292 0.533734
357 2 1.01881 0.326535 0.652884
228 1 0.947467 0.298341 0.538987
229 1 0.787554 0.267263 0.541633
161 1 0.884853 0.250367 0.677261
102 1 0.868816 0.410618 0.604642
105 1 0.941663 0.399414 0.73512
72 1 0.78367 0.444523 0.760137
257 1 0.157621 0.0362936 0.931865
342 2 0.143491 0.0330598 0.752034
180 1 0.0793659 0.131982 0.833385
85 1 0.10771 0.349699 0.510915
79 1 0.248054 0.111847 0.822806
334 2 0.877615 0.33292 0.95144
155 1 0.290576 0.278944 0.984618
260 1 0.410515 0.081376 0.793584
11 1 0.361174 0.146915 0.945437
3 1 0.488724 0.222817 0.879285
186 1 0.506308 0.0579605 0.921266
98 1 0.6687 0.125377 0.963461
123 1 0.580433 0.121033 0.799812
347 2 0.699867 0.0955901 0.834202
185 1 0.71221 0.208318 0.780644
344 2 0.627091 0.220329 0.874806
230 1 0.860746 0.313068 0.81968
78 1 0.964518 0.0618713 0.937766
201 1 0.80473 0.0401027 0.902486
86 1 0.88073 0.156741 0.801798
119 1 0.792147 0.226023 0.936105
303 2 0.930871 0.0373704 0.806647
58 1 0.0175878 0.255862 0.758953
197 1 0.162452 0.257505 0.806265
333 2 0.0600455 0.308379 0.885901
340 2 0.0927456 0.46736 0.919383
68 1 0.0962817 0.4181 0.788276
219 1 0.17036 0.367211 0.929138
8 1 0.248994 0.383116 0.752227
56 1 0.335096 0.256929 0.830064
221 1 0.318021 0.419168 0.889626
218 1 0.454316 0.362402 0.958659
263 1 0.440768 0.363731 0.813636
262 1 0.598596 0.2956 0.984513
1 1 0.950067 0.224609 0.920831
306 2 0.701564 0.464159 0.868836
174 1 0.582341 0.311608 0.798121
13 1 0.571178 0.432338 0.888181
176 1 0.714239 0.339471 0.871162
178 1 0.97569 0.425918 0.889495
34 1 0.819363 0.469414 0.916111
302 2 0.497389 0.474805 0.7579