ITEM: TIMESTEP
0
ITEM: NUMBER OF ATOMS
360
ITEM: BOX BOUNDS pp pp pp
0.0000000000000000e+00 6.6943295008216896e+00
0.0000000000000000e+00 6.6943295008216896e+00
0.0000000000000000e+00 6.6943295008216896e+00
ITEM: ATOMS id type xs ys zs
180 1 0.160448 0.0765408 0.143205
198 1 0.0469849 0.178941 0.118823
99 1 0.0153163 0.0680701 0.23005
160 1 0.27571 0.17785 0.21344
89 1 0.31237 0.173194 0.0590268
65 1 0.429462 0.0788753 0.087385
314 2 0.398581 0.13733 0.201849
69 1 0.473974 0.20473 0.042397
273 1 0.28288 0.014336 0.0820872
250 1 0.43033 0.0175844 0.232897
315 2 0.545562 0.160805 0.149794
53 1 0.673068 0.147042 0.129905
136 1 0.617159 0.0720701 0.00712461
233 1 0.578145 0.0332706 0.165383
91 1 0.735963 0.0165065 0.0929966
209 1 0.742556 0.0442958 0.236066
350 2 0.938959 0.101676 0.123654
88 1 0.950027 0.205557 0.237679
12 1 0.828623 0.14702 0.146188
75 1 0.922005 0.198298 0.0278982
141 1 0.76137 0.160794 0.00633253
5 1 0.146139 0.396179 0.041041
197 1 0.0312127 0.483966 0.0593484
168 1 0.0346568 0.321304 0.133604
219 1 0.232518 0.416382 0.154982
279 1 0.18902 0.267674 0.133307
323 2 0.0373243 0.286612 0.00980211
204 1 0.0945022 0.420705 0.236518
31 1 0.393286 0.260786 0.170858
320 2 0.485464 0.320886 0.0942866
59 1 0.372339 0.410364 0.116166
41 1 0.482641 0.407558 0.220434
356 2 0.607824 0.438524 0.240007
321 2 0.711858 0.259348 0.167671
189 1 0.614948 0.282596 0.0727873
72 1 0.568835 0.275633 0.208926
161 1 0.529855 0.433505 0.0719487
255 1 0.678169 0.39063 0.148897
227 1 0.931857 0.357745 0.0182054
334 2 0.900925 0.275433 0.128249
146 1 0.929067 0.415264 0.178816
296 2 0.809252 0.45726 0.192622
256 1 0.835533 0.323555 0.23268
17 1 0.79574 0.332169 0.0817101
241 1 0.107484 0.188859 0.269808
260 1 0.117182 0.111589 0.436572
48 1 0.144977 0.0411224 0.301204
313 2 0.0221059 0.117348 0.352538
43 1 0.231382 0.185212 0.372841
195 1 0.358671 0.118781 0.334078
29 1 0.358831 0.24086 0.439188
354 2 0.468365 0.16698 0.400695
305 2 0.26081 0.0478603 0.361739
165 1 0.473972 0.0198286 0.395328
200 1 0.338767 0.09892 0.484731
340 2 0.690205 0.014935 0.496996
100 1 0.500437 0.137817 0.279933
226 1 0.649527 0.159529 0.289158
104 1 0.591405 0.124804 0.42133
79 1 0.742872 0.0486485 0.379792
181 1 0.735577 0.190034 0.455643
331 2 0.550764 0.0201868 0.286627
346 2 0.574243 0.242992 0.3407
287 1 0.961466 0.0812778 0.474542
84 1 0.797179 0.193619 0.323855
68 1 0.930816 0.224314 0.404978
324 2 0.839105 0.12778 0.43248
285 1 0.894866 0.0815091 0.322035
236 1 0.0357469 0.481053 0.38276
15 1 0.208911 0.464779 0.319366
77 1 0.0888673 0.260545 0.388495
231 1 0.198088 0.311812 0.295388
179 1 0.161465 0.383615 0.436503
292 2 0.28616 0.369602 0.387884
312 2 0.333573 0.254153 0.291627
124 1 0.45474 0.28088 0.321059
259 1 0.330164 0.381714 0.262559
208 1 0.421433 0.396664 0.400378
61 1 0.699947 0.31472 0.30209
35 1 0.567445 0.375316 0.361339
221 1 0.70434 0.362827 0.468803
224 1 0.721025 0.492013 0.277875
267 1 0.564054 0.269873 0.461704
57 1 0.80718 0.489305 0.455676
115 1 0.829856 0.335998 0.386828
171 1 0.978395 0.346111 0.310173
152 1 0.986766 0.350204 0.466577
103 1 0.886677 0.472715 0.328423
191 1 0.224424 0.0720652 0.637277
3 1 0.0812437 0.084692 0.584992
286 1 0.19122 0.213485 0.525128
126 1 0.159386 0.220984 0.67099
25 1 0.034396 0.212171 0.539377
249 1 0.017871 0.221935 0.713099
345 2 0.126654 0.108062 0.718541
300 2 0.209952 0.0423983 0.505512
27 1 0.464968 0.145272 0.706074
163 1 0.33648 0.211135 0.590085
18 1 0.478539 0.139776 0.52285
133 1 0.380389 0.0438908 0.623773
37 1 0.320661 0.16281 0.732213
338 2 0.589563 0.139177 0.691283
112 1 0.707696 0.0668019 0.675919
138 1 0.54926 0.229779 0.626232
257 1 0.624097 0.125402 0.565851
96 1 0.690605 0.209484 0.740752
342 2 0.593162 0.00155717 0.643233
333 2 0.777034 0.172503 0.640967
244 1 0.941961 0.0972465 0.640104
193 1 0.808635 0.0659666 0.565297
148 1 0.868023 0.201151 0.535936
50 1 0.130685 0.353967 0.588219
275 1 0.215313 0.482968 0.747897
253 1 0.0696315 0.493929 0.659213
188 1 0.207302 0.472412 0.579133
347 2 0.0650009 0.447718 0.533926
252 1 0.2552 0.343249 0.673319
22 1 0.439648 0.321273 0.54178
228 1 0.402723 0.301096 0.71543
162 1 0.377924 0.448763 0.588056
8 1 0.49647 0.413293 0.664856
110 1 0.284191 0.350014 0.524353
245 1 0.702898 0.262969 0.596585
317 2 0.60457 0.34768 0.56147
212 1 0.697608 0.463365 0.584794
229 1 0.545331 0.452378 0.503165
167 1 0.6541 0.358114 0.700658
335 2 0.721533 0.464596 0.737712
33 1 0.977831 0.366558 0.625613
144 1 0.871719 0.265774 0.677642
130 1 0.820522 0.413574 0.676167
45 1 0.835077 0.355457 0.537002
1 1 0.943521 0.493525 0.512592
74 1 0.0804648 0.0175813 0.858845
105 1 0.0264718 0.0922063 0.999243
145 1 0.119037 0.174941 0.828765
71 1 0.224443 0.0545368 0.811118
34 1 0.176151 0.0804959 0.966923
64 1 0.000406802 0.221821 0.901451
28 1 0.137756 0.216438 0.9834
10 1 0.384134 0.0469038 0.79923
86 1 0.407024 0.130397 0.929452
90 1 0.267481 0.182345 0.877374
352 2 0.471617 0.131138 0.824043
11 1 0.316018 0.0119097 0.922725
284 1 0.504202 0.0206658 0.913804
78 1 0.558326 0.16547 0.91497
93 1 0.584921 0.0623363 0.786848
217 1 0.713902 0.111654 0.857979
298 2 0.773495 0.0220098 0.949497
327 2 0.869069 0.209104 0.826213
274 1 0.970874 0.107984 0.800963
158 1 0.826176 0.119269 0.754883
182 1 0.857673 0.113047 0.908403
322 2 0.94852 0.023688 0.91881
336 2 0.221859 0.25272 0.793224
174 1 0.123239 0.347734 0.773626
294 2 0.162907 0.301683 0.895442
187 1 0.0609685 0.373078 0.912706
240 1 0.184138 0.451032 0.898645
280 1 0.365022 0.452962 0.75169
109 1 0.383698 0.408552 0.942683
283 1 0.275575 0.352184 0.833473
14 1 0.408741 0.278556 0.868845
304 2 0.273686 0.437377 0.999749
205 1 0.499212 0.422619 0.833754
122 1 0.25821 0.306402 0.990473
16 1 0.562268 0.275603 0.778459
251 1 0.686185 0.26124 0.915289
116 1 0.657059 0.41167 0.854057
97 1 0.539307 0.329256 0.949961
325 2 0.557627 0.462452 0.933142
66 1 0.665805 0.416648 0.998477
36 1 0.846801 0.280546 0.924463
139 1 0.950763 0.329438 0.798137
21 1 0.776326 0.320125 0.789809
123 1 0.814943 0.422214 0.944175
137 1 0.940344 0.482528 0.915162
63 1 0.0664638 0.634008 0.0144221
24 1 0.116334 0.65528 0.158522
246 1 0.232847 0.702814 0.0606993
268 1 0.00230825 0.536909 0.198983
169 1 0.191733 0.547866 0.0519879
311 2 0.118735 0.514115 0.150711
238 1 0.338756 0.547862 0.0328165
265 1 0.263272 0.572136 0.183306
291 2 0.364663 0.665645 0.128813
175 1 0.459106 0.537046 0.136045
30 1 0.490644 0.677227 0.113374
329 2 0.483613 0.595432 0.246572
211 1 0.595424 0.577957 0.0404038
39 1 0.74026 0.522524 0.108242
134 1 0.709925 0.646538 0.207677
316 2 0.700868 0.654871 0.0464195
23 1 0.593377 0.544694 0.183743
186 1 0.976483 0.723449 0.180051
277 1 0.854682 0.593333 0.213583
272 1 0.809998 0.666532 0.0901467
360 2 0.979528 0.608457 0.10301
151 1 0.948907 0.740603 0.0408805
118 1 0.889012 0.519435 0.0687907
355 2 0.182695 0.816279 0.00849151
206 1 0.145858 0.945916 0.0329031
155 1 0.0875162 0.803282 0.113223
108 1 0.13706 0.911527 0.204758
40 1 0.0125294 0.9907 0.0957779
293 2 0.29093 0.767481 0.18457
207 1 0.275542 0.992241 0.232549
178 1 0.3857 0.779835 0.0899182
359 2 0.373239 0.934776 0.149943
54 1 0.402055 0.931471 0.011303
210 1 0.258643 0.865839 0.127123
87 1 0.36382 0.849894 0.242491
52 1 0.496106 0.895481 0.132889
290 2 0.449282 0.772929 0.200397
328 2 0.5131 0.986635 0.0369067
156 1 0.607578 0.750839 0.0528537
288 1 0.629472 0.91844 0.056158
117 1 0.723989 0.785657 0.146198
337 2 0.747539 0.920024 0.159018
120 1 0.575549 0.764886 0.209163
234 1 0.642472 0.907024 0.236443
185 1 0.871627 0.855559 0.132355
258 1 0.988272 0.88244 0.227059
248 1 0.766947 0.868861 0.00368701
7 1 0.884425 0.983052 0.0120238
203 1 0.882318 0.998014 0.188913
82 1 0.0999116 0.573297 0.298757
242 1 0.208801 0.716733 0.258201
230 1 0.162958 0.542754 0.444406
157 1 0.144035 0.71283 0.414326
270 1 0.0559562 0.744244 0.304118
47 1 0.369166 0.673795 0.255607
218 1 0.384892 0.526579 0.281139
190 1 0.433913 0.716308 0.4747
125 1 0.258125 0.606052 0.348167
307 2 0.38418 0.613302 0.383207
149 1 0.482904 0.74034 0.32509
262 1 0.326501 0.50744 0.451422
67 1 0.652401 0.521873 0.4118
183 1 0.510016 0.52919 0.37553
177 1 0.571224 0.649865 0.464895
269 1 0.609067 0.6127 0.309568
306 2 0.681303 0.706227 0.420919
51 1 0.837491 0.742346 0.255915
332 2 0.985321 0.592781 0.421447
164 1 0.816958 0.73785 0.418647
9 1 0.927306 0.652681 0.327039
348 2 0.867039 0.604193 0.450869
196 1 0.772675 0.608796 0.357466
111 1 0.985136 0.710106 0.465827
326 2 0.0628976 0.989414 0.48314
216 1 0.180373 0.951978 0.433582
81 1 0.00902585 0.987197 0.357225
101 1 0.072815 0.849398 0.467139
70 1 0.224017 0.862184 0.320319
339 2 0.0952404 0.899799 0.3265
310 2 0.337886 0.820796 0.472542
32 1 0.322897 0.750403 0.372371
114 1 0.493291 0.89722 0.307556
140 1 0.345457 0.932102 0.370532
295 2 0.404098 0.998619 0.49097
131 1 0.685962 0.754413 0.306985
194 1 0.728353 0.868402 0.435117
254 1 0.581247 0.80719 0.423768
264 1 0.62189 0.971135 0.384835
132 1 0.783692 0.883956 0.287804
349 2 0.895975 0.939296 0.313696
343 2 0.920459 0.834412 0.487307
276 1 0.959663 0.846481 0.368188
128 1 0.85496 0.971722 0.431934
147 1 0.197771 0.609243 0.636838
143 1 0.0263693 0.660609 0.690766
95 1 0.0661314 0.58832 0.546561
6 1 0.104187 0.740052 0.581138
301 2 0.194855 0.674123 0.524376
341 2 0.365963 0.722889 0.719601
13 1 0.358682 0.608964 0.670498
44 1 0.475634 0.700674 0.629348
73 1 0.315926 0.625961 0.532256
42 1 0.491606 0.557777 0.654159
201 1 0.458671 0.568257 0.512864
358 2 0.584128 0.560901 0.563443
220 1 0.624684 0.671489 0.62249
302 2 0.786435 0.737951 0.620717
215 1 0.757094 0.578545 0.677365
135 1 0.923171 0.529541 0.695531
170 1 0.867357 0.675548 0.72908
271 1 0.900938 0.643632 0.574961
166 1 0.758059 0.631779 0.523379
303 2 0.835302 0.534611 0.590259
222 1 0.0297956 0.962123 0.704373
153 1 0.165237 0.91714 0.746125
56 1 0.148116 0.938894 0.586066
26 1 0.219279 0.764873 0.666968
297 2 0.0793756 0.860903 0.655848
119 1 0.215487 0.808014 0.50503
192 1 0.434825 0.820569 0.709362
46 1 0.351546 0.785268 0.58901
282 1 0.30937 0.919593 0.525321
351 2 0.41162 0.897567 0.608605
83 1 0.481561 0.961803 0.702384
19 1 0.31878 0.9335 0.691741
239 1 0.469442 0.862558 0.504776
237 1 0.695994 0.783655 0.70926
330 2 0.548097 0.765347 0.544547
127 1 0.561218 0.855518 0.628053
184 1 0.678288 0.938558 0.747189
199 1 0.681438 0.784959 0.549061
261 1 0.702688 0.933908 0.592726
20 1 0.514117 0.999273 0.550697
289 2 0.59576 0.912333 0.509523
94 1 0.843257 0.96477 0.696443
38 1 0.963901 0.941035 0.551528
235 1 0.821253 0.84865 0.564807
278 1 0.836014 0.816545 0.721503
214 1 0.964201 0.793385 0.599384
172 1 0.144362 0.621894 0.776302
49 1 0.180846 0.625639 0.931594
4 1 0.0383231 0.670556 0.865732
353 2 0.231827 0.74109 0.894907
299 2 0.0696112 0.547511 0.925331
102 1 0.0567235 0.501939 0.808252
113 1 0.316629 0.535304 0.865014
121 1 0.461903 0.543639 0.942998
85 1 0.286259 0.661817 0.805142
58 1 0.453063 0.592591 0.796338
247 1 0.419419 0.747713 0.830932
2 1 0.345495 0.678267 0.951267
202 1 0.506861 0.693396 0.95839
62 1 0.56163 0.706145 0.762281
266 1 0.594339 0.582562 0.885972
129 1 0.734221 0.646863 0.820431
142 1 0.733698 0.552315 0.952701
106 1 0.598084 0.516081 0.756364
243 1 0.808837 0.513286 0.819285
308 2 0.844985 0.723874 0.836867
223 1 0.883993 0.633701 0.926673
309 2 0.918193 0.582455 0.818535
281 1 0.76657 0.718393 0.95123
76 1 0.117186 0.771953 0.790975
92 1 0.0800541 0.773946 0.962654
319 2 0.0483931 0.84296 0.862899
98 1 0.165168 0.879396 0.886081
213 1 0.00540344 0.894788 0.975867
357 2 0.281028 0.925943 0.841308
318 2 0.42583 0.799951 0.962233
159 1 0.278738 0.810083 0.792323
107 1 0.297138 0.836345 0.972072
154 1 0.409869 0.897462 0.856043
263 1 0.530589 0.856533 0.941781
173 1 0.62866 0.7545 0.883584
150 1 0.553747 0.864569 0.793995
225 1 0.652744 0.954715 0.903027
55 1 0.764307 0.833677 0.845436
176 1 0.932698 0.785064 0.90633
344 2 0.862547 0.893955 0.919462
232 1 0.983344 0.812206 0.752593
80 1 0.949126 0.928645 0.839217
60 1 0.813004 0.984377 0.834412
ITEM: TIMESTEP
50000
ITEM: NUMBER OF ATOMS
360
ITEM: BOX BOUNDS pp pp pp
0.0000000000000000e+00 6.6943295008216896e+00
0.0000000000000000e+00 6.6943295008216896e+00
0.0000000000000000e+00 6.6943295008216896e+00
ITEM: ATOMS id type xs ys zs
48 1 0.183874 0.121717 0.0490454
314 2 0.119275 0.132796 0.161053
75 1 0.0162146 0.168572 0.0871427
231 1 0.0759362 0.217092 0.245605
89 1 0.254061 0.0565134 0.18336
86 1 0.492668 0.224078 0.128695
273 1 0.398277 0.130484 0.227574
339 2 0.394956 0.0593713 0.0927589
122 1 0.338322 0.159026 0.0801022
239 1 0.422197 0.0100239 0.472435
41 1 0.23922 0.2006 0.199701
35 1 0.309521 0.470554 0.320219
331 2 0.629164 0.019518 0.258879
100 1 0.53602 0.152861 0.27259
84 1 0.643854 0.157404 0.16406
65 1 0.442377 0.265303 0.277703
141 1 0.779231 0.175339 0.0412722
257 1 0.771538 0.119965 0.239374
262 1 0.293273 0.304689 0.472912
53 1 0.744579 0.0345812 0.116444
12 1 0.0167977 0.0712117 0.215716
322 2 0.915159 0.209689 0.0274186
7 1 0.884811 0.132875 0.142503
313 2 0.852601 0.0241588 0.19314
8 1 0.550227 0.472062 0.431811
241 1 0.118473 0.269801 0.0867585
219 1 0.205668 0.403625 0.087459
146 1 0.0628231 0.434558 0.15134
15 1 0.164317 0.334241 0.227973
323 2 0.100162 0.431829 0.0149383
171 1 0.991543 0.355579 0.263442
109 1 0.349531 0.492227 0.099333
259 1 0.335141 0.319682 0.137208
61 1 0.293242 0.31433 0.289031
11 1 0.401403 0.277992 0.00850695
37 1 0.649996 0.258501 0.0534584
226 1 0.4728 0.365036 0.160765
18 1 0.69533 0.24414 0.509496
359 2 0.42787 0.0365296 0.321861
72 1 0.613751 0.304774 0.222995
34 1 0.133653 0.0156781 0.302824
168 1 0.942609 0.299361 0.126663
277 1 0.748623 0.408749 0.17614
334 2 0.841191 0.33026 0.0743518
88 1 0.800976 0.256938 0.171235
223 1 0.89911 0.442729 0.111362
350 2 0.86168 0.328024 0.259767
217 1 0.513933 0.0414608 0.13385
43 1 0.168365 0.086897 0.451374
29 1 0.177369 0.231099 0.374295
305 2 0.184911 0.123114 0.294371
216 1 0.0338429 0.119836 0.361585
312 2 0.311596 0.196956 0.324445
31 1 0.305852 0.0714895 0.329853
207 1 0.441809 0.167927 0.402937
209 1 0.641343 0.094652 0.00337365
180 1 0.313087 0.133368 0.488208
138 1 0.66489 0.164397 0.369909
342 2 0.533945 0.0983286 0.470614
289 2 0.769399 0.0806505 0.369255
338 2 0.712502 0.229712 0.273611
317 2 0.765328 0.331487 0.452056
103 1 0.909501 0.202525 0.272768
160 1 0.919322 0.163797 0.440415
285 1 0.891249 0.0630234 0.309706
181 1 0.79842 0.225724 0.368664
260 1 0.975333 0.0363083 0.471442
131 1 0.545434 0.0300773 0.367391
208 1 0.0173146 0.281 0.410734
358 2 0.067514 0.408793 0.396178
177 1 0.186128 0.396965 0.361739
201 1 0.0733356 0.478597 0.292244
69 1 0.629824 0.434341 0.0768707
105 1 0.0661959 0.0269983 0.0814095
245 1 0.450198 0.322855 0.424508
356 2 0.35591 0.411066 0.211636
214 1 0.383548 0.456437 0.468757
346 2 0.643601 0.464878 0.345007
255 1 0.461537 0.425312 0.304465
221 1 0.598673 0.327806 0.390327
279 1 0.459389 0.422718 0.00173372
17 1 0.867375 0.457195 0.274905
47 1 0.206529 0.479737 0.219218
224 1 0.884267 0.356845 0.387971
267 1 0.724433 0.361307 0.312887
321 2 0.318902 0.392949 0.0278833
256 1 0.601038 0.451673 0.227835
57 1 0.764013 0.472735 0.39866
198 1 0.255512 0.258274 0.000995298
148 1 0.785623 0.112179 0.483263
38 1 0.156858 0.0527993 0.600061
274 1 0.0540416 0.159946 0.662301
25 1 0.209763 0.164266 0.721387
19 1 0.235553 0.0130636 0.71607
126 1 0.0493041 0.302225 0.615621
3 1 0.191492 0.203063 0.552246
112 1 -0.00118625 0.0046532 0.611828
295 2 0.290115 0.104018 0.61652
252 1 0.460535 0.1104 0.580974
28 1 0.090983 0.478486 0.872106
191 1 0.338922 0.216352 0.612104
300 2 0.487994 0.0318088 0.756303
78 1 0.401449 0.146451 0.74312
287 1 0.942349 0.365477 0.822729
83 1 0.552212 0.134008 0.71108
261 1 0.63396 0.113788 0.551821
20 1 0.634309 0.262958 0.647726
158 1 0.947073 0.0806994 0.983935
347 2 0.719589 0.493784 0.59744
45 1 0.766963 0.165809 0.642158
68 1 0.911889 0.138045 0.581255
144 1 0.854178 0.000779639 0.669342
354 2 0.968226 0.266041 0.711302
340 2 0.850529 0.258532 0.648643
66 1 0.606589 0.378484 0.911662
193 1 0.667545 0.023266 0.688488
292 2 0.417615 0.244241 0.519426
325 2 0.483317 0.328957 0.918781
253 1 0.0662135 0.459851 0.61556
110 1 0.212252 0.316187 0.652816
116 1 0.715883 0.261061 0.902222
140 1 0.387044 0.00827089 0.666973
222 1 0.217397 0.00292067 0.864454
44 1 0.33935 0.331515 0.734828
22 1 0.480793 0.265641 0.640583
335 2 0.454209 0.37815 0.69135
280 1 0.379845 0.35873 0.576869
106 1 0.585631 0.414556 0.676789
303 2 0.706304 0.453163 0.728183
243 1 0.807354 0.446933 0.832286
139 1 0.968409 0.498184 0.733144
189 1 0.872805 0.30776 0.952463
21 1 0.752758 0.364335 0.631689
9 1 0.825719 0.436142 0.531881
115 1 0.864308 0.277929 0.515745
135 1 0.821147 0.501153 0.689272
236 1 0.923546 0.364158 0.645607
327 2 0.84075 0.380445 0.735572
336 2 0.534618 0.379443 0.569821
304 2 0.123578 0.208749 0.976582
286 1 0.10071 0.233494 0.804435
187 1 0.235691 0.192049 0.871563
64 1 0.0824753 0.0344519 0.762591
123 1 0.0158716 0.214571 0.930062
145 1 0.108568 0.0950786 0.909442
298 2 0.440211 0.112423 0.85526
357 2 0.315486 0.0623864 0.815972
284 1 0.473936 0.114749 0.993678
90 1 0.33148 0.0720842 0.95428
133 1 0.557933 0.0668659 0.854856
58 1 0.374623 0.48223 0.707278
163 1 0.569855 0.21401 0.916973
182 1 -0.00506369 0.374643 0.986912
228 1 0.686707 0.184856 0.765764
315 2 0.726344 0.108913 0.900037
152 1 0.91745 0.148706 0.741187
251 1 0.780369 0.0587485 0.794293
60 1 0.803029 0.031053 0.958048
16 1 0.864813 0.156168 0.893139
333 2 0.0211462 0.136882 0.826918
93 1 0.946357 0.031784 0.841692
33 1 0.816769 0.277595 0.791272
1 1 0.0776667 0.36729 0.743708
165 1 0.538559 0.229205 0.507838
294 2 0.232126 0.2887 0.793023
283 1 0.229084 0.420943 0.79344
97 1 0.151822 0.325772 0.924181
5 1 0.222378 0.460639 0.948988
124 1 0.670219 0.34157 0.777668
42 1 0.238228 0.461143 0.625292
205 1 0.516964 0.287755 0.795
237 1 0.609605 0.490981 0.793345
10 1 0.38429 0.219548 0.864066
211 1 0.343031 0.369461 0.899062
215 1 0.462801 0.421482 0.814125
118 1 0.860829 0.459551 0.969622
96 1 0.662549 0.392125 0.527804
179 1 0.97687 0.39383 0.501484
136 1 0.742835 0.378665 1.00361
249 1 0.142812 0.387441 0.506742
77 1 0.0452059 0.175485 0.519131
24 1 0.116856 0.681399 0.0942306
246 1 0.210455 0.754977 0.226996
204 1 0.179114 0.54584 0.0828888
301 2 0.0812909 0.551134 0.148617
107 1 0.388673 0.943915 0.0202718
258 1 0.0543295 0.762696 0.212692
183 1 0.286692 0.60337 0.224217
169 1 0.473735 0.685814 0.0956433
218 1 0.274943 0.668544 0.100246
227 1 0.00879029 0.533647 0.0397072
39 1 0.50944 0.539619 0.088997
291 2 0.656521 0.699026 0.126141
142 1 0.724502 0.542327 0.0960043
23 1 0.602857 0.594835 0.186359
40 1 1.00483 0.859588 0.0650954
117 1 0.564519 0.758014 0.210168
296 2 0.828913 0.524523 0.180621
202 1 0.824721 0.645925 0.17883
63 1 0.967091 0.683896 0.12631
111 1 0.854981 0.598403 0.0410033
348 2 0.953346 0.688815 0.25226
82 1 0.954458 0.548548 0.197936
266 1 0.741724 0.684753 0.0347133
114 1 0.253695 0.914103 0.236467
203 1 0.14414 0.860482 0.106105
121 1 0.608707 0.648208 -0.00175935
349 2 0.145792 0.971271 0.160271
186 1 0.0337271 0.911331 0.193924
355 2 0.0909205 0.776694 0.000797826
59 1 0.443586 0.54954 0.220949
242 1 0.234847 0.970498 0.0499193
157 1 0.841027 0.974817 0.418288
353 2 0.289668 0.862343 0.104521
87 1 0.369592 0.806256 0.193651
108 1 0.382153 0.974834 0.178049
318 2 0.479932 0.819023 0.307996
250 1 0.504131 0.9377 0.253018
178 1 0.485165 0.878697 0.107237
233 1 0.63138 0.912285 0.150267
54 1 0.618958 0.795337 0.0384968
185 1 0.736973 0.808251 0.178247
328 2 0.802619 0.90849 0.134596
99 1 0.909644 0.9755 0.0944215
360 2 0.94867 0.812429 0.163222
268 1 0.855384 0.797516 0.0788778
125 1 0.942204 0.503761 0.408268
79 1 0.692561 0.982978 0.409977
265 1 0.136495 0.632147 0.233644
188 1 0.16125 0.740907 0.393464
147 1 0.0358996 0.632183 0.343182
307 2 0.177498 0.560233 0.345839
166 1 0.41903 0.734072 0.422077
134 1 0.441847 0.568845 0.374784
119 1 0.290759 0.628676 0.386986
32 1 0.404065 0.688385 0.268275
272 1 0.709032 0.707398 0.278648
196 1 0.603183 0.58507 0.345434
30 1 0.568278 0.735371 0.360992
276 1 0.704276 0.690769 0.42556
351 2 0.759679 0.590354 0.37132
51 1 0.726321 0.539715 0.254964
67 1 0.867314 0.619523 0.328027
143 1 0.873684 0.745897 0.419774
270 1 -0.00684919 0.788687 0.346215
352 2 0.375126 0.59807 0.039386
337 2 0.890207 0.862598 0.367926
234 1 0.739868 0.892452 0.0313668
326 2 0.0723455 0.862008 0.425026
56 1 0.142361 0.862619 0.311848
210 1 0.240986 0.954133 0.41609
164 1 0.857052 0.766454 0.260869
293 2 0.274217 0.743222 0.46767
230 1 0.307635 0.788643 0.341781
264 1 0.500202 0.879821 0.412187
70 1 0.367182 0.921009 0.32139
73 1 0.333178 0.850352 0.481564
52 1 0.626415 0.875414 0.31209
91 1 0.741061 0.967316 0.256901
149 1 0.649496 0.830785 0.451584
120 1 0.768842 0.851222 0.357458
175 1 0.366881 0.776962 0.0441009
132 1 0.882782 0.912072 0.238679
94 1 0.946267 0.884929 0.474965
128 1 -0.00312378 0.943759 0.346091
170 1 0.0930268 0.530331 0.456665
271 1 0.829752 0.584845 0.479672
95 1 0.991307 0.655452 0.471212
206 1 0.220509 0.78245 0.0112611
329 2 0.551891 0.766635 0.501316
229 1 0.246645 0.514636 0.461488
269 1 0.535833 0.630481 0.477534
212 1 0.67385 0.558777 0.495549
302 2 0.496229 0.497835 0.715828
306 2 0.115695 0.570774 0.594511
275 1 0.117629 0.558386 0.73104
49 1 0.0264388 0.657925 0.634962
102 1 0.179137 0.651715 0.505839
13 1 0.228841 0.606666 0.650573
225 1 0.526749 0.979232 0.652921
162 1 0.361907 0.622827 0.514523
220 1 0.370666 0.641387 0.686353
232 1 0.296636 0.987341 0.549102
235 1 0.538334 0.650483 0.700969
332 2 0.683086 0.682593 0.693481
309 2 0.958043 0.961597 0.724891
130 1 0.643402 0.560744 0.663367
81 1 0.0878922 0.944522 0.50505
167 1 0.485643 0.510807 0.587449
278 1 0.763339 0.623011 0.607599
343 2 0.788633 0.713621 0.517927
190 1 0.576512 0.966682 0.511577
6 1 0.890221 0.703647 0.583189
36 1 0.930842 0.525304 0.585765
213 1 0.0110006 0.790725 0.728359
174 1 0.0334668 0.787996 0.528763
76 1 0.102198 0.886321 0.656387
92 1 0.14343 0.738846 0.651356
104 1 0.805338 0.842593 0.509197
263 1 0.770177 0.741697 0.777274
26 1 0.30357 0.884614 0.656025
172 1 0.286781 0.743354 0.609907
46 1 0.440335 0.889429 0.577363
282 1 0.468323 0.743321 0.794915
27 1 0.674706 0.974496 0.905814
199 1 0.644334 0.701585 0.568326
330 2 0.540479 0.855983 0.662667
127 1 0.458754 0.742578 0.601518
254 1 0.649813 0.865083 0.605104
154 1 0.624483 0.78096 0.737977
244 1 0.41825 0.98196 0.845554
308 2 0.891831 0.764339 0.694675
194 1 0.763546 0.770401 0.634018
55 1 0.916665 0.873247 0.622598
297 2 0.779557 0.891384 0.654795
4 1 0.168559 0.692569 0.792737
80 1 0.266937 0.562278 0.812573
113 1 0.0241174 0.662894 0.812839
240 1 0.153758 0.623702 0.948718
101 1 0.735635 0.977957 0.563446
311 2 0.266754 0.564269 0.988786
310 2 0.356277 0.669418 0.816579
62 1 0.451604 0.585865 0.808651
299 2 0.873043 0.540982 0.802072
161 1 0.373476 0.534796 0.929613
238 1 0.29916 0.67607 0.931697
85 1 0.453736 0.668193 0.933143
98 1 0.000762177 0.668546 0.975004
247 1 0.546859 0.523365 0.935461
129 1 0.587816 0.658334 0.855102
156 1 0.708026 0.523725 0.938287
320 2 0.830623 0.942035 0.852835
173 1 0.741165 0.592817 0.78459
344 2 0.723442 0.658439 0.91486
176 1 0.836462 0.636139 0.885638
197 1 0.890373 0.63763 0.724883
319 2 0.221971 0.767873 0.881853
159 1 0.137923 0.914648 0.948641
74 1 0.0968955 0.788541 0.885805
200 1 0.205535 0.872051 0.779543
151 1 0.798898 0.782762 0.929784
155 1 0.947118 0.780429 0.882056
195 1 0.431183 0.863325 0.737102
71 1 0.290039 0.878132 0.914442
288 1 0.502643 0.816432 0.93811
290 2 0.389608 0.780536 0.898608
341 2 0.320473 0.937743 0.769175
153 1 0.316175 0.776607 0.793724
137 1 0.964072 0.546693 0.894002
14 1 0.547679 0.953702 0.979307
192 1 0.65195 0.799761 0.880727
150 1 0.741138 0.890222 0.775254
2 1 0.549121 0.911809 0.800707
281 1 0.884202 0.861871 0.77958
248 1 0.887471 0.905698 0.960614
184 1 0.0481028 0.911238 0.822999
345 2 0.0167545 0.968416 0.94332
50 1 0.190147 0.834939 0.524149
324 2 0.888479 0.982195 0.543985
316 2 0.885973 0.709615 0.990671
ITEM: TIMESTEP
100000
ITEM: NUMBER OF ATOMS
360
ITEM: BOX BOUNDS pp pp pp
0.0000000000000000e+00 6.6943295008216896e+00
0.0000000000000000e+00 6.6943295008216896e+00
0.0000000000000000e+00 6.6943295008216896e+00
ITEM: ATOMS id type xs ys zs
286 1 0.157097 0.309713 0.0194654
318 2 0.256996 0.106332 0.116298
48 1 0.149975 0.1721 0.133646
99 1 0.0177971 0.101286 0.190603
231 1 0.0800865 0.259178 0.246483
322 2 0.186239 0.179456 0.254219
148 1 0.793401 0.330454 0.422728
90 1 0.289478 0.215097 0.192849
2 1 0.283815 0.198237 0.0388143
259 1 0.409152 0.152703 0.105672
177 1 0.358201 0.487911 0.381415
339 2 0.411814 0.226479 0.218559
306 2 0.969249 0.462508 0.257855
178 1 0.533401 0.0662016 0.147844
352 2 0.464464 0.0643724 0.0267245
88 1 0.648455 0.169245 0.118255
38 1 0.193282 0.233568 0.493744
276 1 0.720499 0.458154 0.467802
315 2 0.720243 0.0266191 0.210993
7 1 0.798485 0.143367 0.125291
323 2 0.938498 0.147769 0.0858979
12 1 0.850707 0.0506706 0.233256
234 1 0.886343 0.0400567 0.0546671
97 1 0.188685 0.330602 0.175161
227 1 0.029715 0.253629 0.0825951
82 1 0.0641136 0.449604 0.0366271
146 1 0.0308638 0.386557 0.166903
356 2 0.136586 0.459062 0.170948
111 1 0.811709 0.394179 0.0148858
299 2 0.951741 0.375951 0.0550371
72 1 0.532003 0.455061 0.301023
198 1 0.376742 0.335261 0.130112
279 1 0.261732 0.42775 0.073522
263 1 0.714527 0.493403 0.0925539
354 2 0.644995 0.410557 0.35883
350 2 0.628512 0.232299 0.223981
329 2 0.485026 0.380882 0.178533
215 1 0.522482 0.248894 0.142204
66 1 0.529566 0.375846 0.0415116
209 1 0.621557 0.360567 0.16996
325 2 0.603615 0.266205 0.048331
241 1 0.91842 0.240942 0.187819
296 2 0.756738 0.410511 0.18075
168 1 0.748164 0.28849 0.111168
17 1 0.873003 0.389628 0.1634
267 1 0.790693 0.278006 0.253601
224 1 0.810202 0.424881 0.298153
235 1 0.580201 0.368695 0.462813
114 1 0.0332895 0.0660547 0.0243116
11 1 0.245299 0.228647 0.354804
47 1 0.110617 0.13445 0.380468
95 1 0.937362 0.310602 0.477619
15 1 0.31817 0.082445 0.367031
31 1 0.231688 0.0617731 0.24012
245 1 0.326659 0.264512 0.476157
84 1 0.422496 0.04955 0.261636
100 1 0.417982 0.206786 0.366444
122 1 0.448649 0.0588882 0.462061
185 1 0.606968 0.00874725 0.275632
273 1 0.354376 0.00332261 0.121416
255 1 0.551642 0.214363 0.429968
37 1 0.542421 0.14983 0.283099
181 1 0.715923 0.139883 0.267352
338 2 0.513525 0.0490848 0.359329
18 1 0.635508 0.092381 0.392414
216 1 0.772771 0.021462 0.357671
76 1 0.0385367 0.0100617 0.46373
317 2 0.841203 0.166613 0.278068
77 1 0.982814 0.159117 0.456908
208 1 0.977416 0.16861 0.314876
9 1 0.788239 0.174163 0.391495
171 1 0.94104 0.319065 0.318698
125 1 0.879834 0.455493 0.436666
179 1 0.0720961 0.276149 0.402431
226 1 0.437327 0.491619 0.0856585
351 2 0.168929 0.328678 0.303994
229 1 0.0797296 0.410185 0.323327
293 2 -0.00411163 0.397099 0.426249
289 2 0.89282 0.100248 0.39341
29 1 0.243391 0.383341 0.391736
41 1 0.344304 0.343054 0.28191
61 1 0.503335 0.298434 0.279659
65 1 0.435827 0.350629 0.403037
196 1 0.394606 0.475233 0.236996
81 1 0.227487 0.465057 0.248985
86 1 0.66819 0.270571 0.343519
189 1 0.887627 0.255542 0.0341977
45 1 0.681869 0.229086 0.497528
284 1 0.548066 0.156767 0.0136002
73 1 0.503218 0.508839 0.47802
249 1 0.105757 0.411291 0.489493
328 2 0.808246 0.158647 0.00466742
85 1 0.561048 0.502072 0.158902
34 1 0.958355 0.0151535 0.330779
53 1 0.705865 0.0735018 0.0125505
103 1 0.88118 0.0155191 0.494422
274 1 0.0452995 0.168143 0.690985
225 1 0.181321 0.144094 0.620106
305 2 0.146653 0.104517 0.738356
78 1 0.211736 0.236745 0.743417
180 1 1.00003 0.07768 0.588139
256 1 0.38248 0.411946 0.52597
83 1 0.317398 0.107452 0.717933
252 1 0.322191 0.096808 0.547414
262 1 0.32448 0.25428 0.631408
58 1 0.440207 0.166126 0.641183
219 1 0.197125 0.478123 0.961781
330 2 0.567066 0.0326173 0.814043
20 1 0.569993 0.121618 0.555963
68 1 0.700426 0.195655 0.639664
106 1 0.596692 0.0950983 0.705513
342 2 0.667653 0.0502394 0.618938
335 2 0.561747 0.229259 0.644283
138 1 0.72467 0.0549272 0.500911
190 1 0.796962 0.0480097 0.631096
324 2 0.974468 0.192376 0.583805
160 1 0.8989 0.138688 0.699351
126 1 0.833727 0.196481 0.538427
64 1 0.228339 -0.00460106 0.633123
236 1 0.0723231 0.264435 0.572276
139 1 0.0918024 0.470173 0.623915
3 1 0.0696016 0.327775 0.726112
357 2 0.177642 0.425037 0.739858
44 1 0.206801 0.360014 0.59298
217 1 0.190172 0.0483342 0.487888
332 2 0.354625 0.377806 0.664047
220 1 0.422358 0.467314 0.743023
42 1 0.270402 0.478894 0.692224
205 1 0.450208 0.30895 0.720879
152 1 0.956051 0.373384 0.805007
214 1 0.482082 0.297147 0.570533
311 2 0.37561 0.436262 0.981961
162 1 0.512522 0.445979 0.627224
280 1 0.622682 0.333827 0.607396
237 1 0.701966 0.392273 0.730047
347 2 0.616255 0.480828 0.544331
327 2 0.990438 0.416908 0.69135
165 1 0.780938 0.350255 0.582897
115 1 0.935897 0.305754 0.642394
281 1 0.82231 0.272093 0.738507
21 1 0.847029 0.449164 0.682401
144 1 0.969394 0.430039 0.569592
193 1 0.46097 0.0348455 0.743935
242 1 0.230356 0.0800872 0.832363
19 1 0.202226 0.223395 0.899524
333 2 0.09273 0.256055 0.825673
145 1 0.08237 0.135392 0.867676
33 1 0.0668015 0.476824 0.795863
316 2 0.35359 0.0479158 0.875999
244 1 0.357633 0.19587 0.861786
298 2 0.366557 0.231595 0.746341
345 2 0.0986464 0.195538 0.980735
192 1 0.474143 0.0972396 0.901133
360 2 0.0956694 0.000847024 0.906352
141 1 0.69552 0.229882 0.976404
133 1 0.505046 0.192026 0.797501
116 1 0.629471 0.128589 0.859811
156 1 0.637478 0.256043 0.762121
292 2 0.0938437 0.140384 0.500666
75 1 0.809317 0.0674583 0.919659
158 1 0.938146 0.149157 0.954867
251 1 0.764882 0.133249 0.773535
320 2 0.890334 0.109657 0.826133
93 1 0.963964 0.221101 0.810833
1 1 1.00464 0.0407916 0.768135
243 1 0.794329 0.390214 0.84743
108 1 0.343093 0.0664688 0.99471
25 1 0.152032 0.359232 0.862054
123 1 0.013464 0.28632 0.934861
167 1 0.305299 0.349403 0.786458
28 1 0.303602 0.481666 0.855825
22 1 0.289902 0.346766 0.941814
211 1 0.42507 0.384137 0.875361
304 2 0.894019 0.328968 0.902039