ITEM: TIMESTEP
0
ITEM: NUMBER OF ATOMS
360
ITEM: BOX BOUNDS pp pp pp
0.0000000000000000e+00 6.6943295008216896e+00
0.0000000000000000e+00 6.6943295008216896e+00
0.0000000000000000e+00 6.6943295008216896e+00
ITEM: ATOMS id type xs ys zs
99 1 0.0662626 0.146199 0.173376
61 1 0.203738 0.180197 0.102771
292 2 0.14868 0.220075 0.222109
345 2 0.0692148 0.0135723 0.122537
198 1 0.232193 0.0346284 0.131053
1 1 0.122663 0.0547732 0.00907831
168 1 0.357842 0.150201 0.157425
259 1 0.461795 0.131857 0.0318802
215 1 0.32872 0.212946 0.00785465
329 2 0.286248 0.245714 0.175751
31 1 0.367743 0.0206028 0.228782
288 1 0.315326 0.0639989 0.00988575
90 1 0.5125 0.0442392 0.147214
248 1 0.666316 0.0608527 0.221301
88 1 0.538915 0.190154 0.189785
124 1 0.629178 0.0904789 0.0494746
189 1 0.686491 0.217505 0.197555
151 1 0.79152 0.0303952 0.0229327
234 1 0.939892 0.0784548 0.120984
251 1 0.77598 0.196741 0.080022
241 1 0.91646 0.228366 0.143681
12 1 0.8211 0.130976 0.219858
208 1 0.997756 0.0238801 0.244878
111 1 0.0100647 0.443151 0.0158007
219 1 0.156862 0.419121 0.0313496
11 1 0.171508 0.332072 0.163032
231 1 0.0592918 0.290815 0.0802275
229 1 0.0833317 0.449589 0.161221
307 2 0.030484 0.267655 0.20697
279 1 0.430343 0.279119 0.111109
226 1 0.308077 0.36217 0.0489103
183 1 0.416263 0.462914 0.0904259
328 2 0.477848 0.39528 0.184776
26 1 0.263444 0.486624 0.129947
81 1 0.322932 0.357441 0.203842
325 2 0.699356 0.309246 0.0966768
7 1 0.585474 0.336929 0.172785
277 1 0.556041 0.423352 0.0189124
263 1 0.608597 0.253431 0.0358523
267 1 0.700659 0.434415 0.246016
85 1 0.725047 0.466288 0.100777
204 1 0.579828 0.494281 0.170977
146 1 0.96138 0.378853 0.183825
158 1 0.809088 0.331124 0.177665
93 1 0.90236 0.321988 0.0292831
224 1 0.889002 0.486056 0.110096
47 1 0.143638 0.0367465 0.253586
84 1 0.246434 0.14202 0.255709
213 1 0.0542244 0.0529841 0.457832
76 1 0.105506 0.153165 0.334407
29 1 0.230853 0.171597 0.421143
322 2 0.203973 0.0622562 0.482076
339 2 0.448098 0.120544 0.250414
164 1 0.285073 0.040974 0.359313
191 1 0.434416 0.0433426 0.367674
15 1 0.386911 0.174903 0.345465
53 1 0.749963 0.00831221 0.333672
284 1 0.607361 0.0572011 0.409918
18 1 0.731074 0.064599 0.487239
196 1 0.539129 0.181096 0.334754
45 1 0.712406 0.164417 0.368201
331 2 0.96452 0.144753 0.493865
79 1 0.880916 0.0405935 0.470117
77 1 0.841947 0.189478 0.460616
317 2 0.968628 0.162692 0.251667
350 2 0.848769 0.17817 0.332542
216 1 0.955072 0.128661 0.372082
352 2 0.864004 0.0507417 0.302645
180 1 0.0066418 0.260795 0.420646
236 1 0.172937 0.300549 0.473885
9 1 0.0719075 0.346674 0.296625
171 1 0.0665231 0.418856 0.441478
163 1 0.213265 0.280311 0.310017
44 1 0.220539 0.434963 0.410769
109 1 0.197287 0.450158 0.262415
256 1 0.329021 0.31728 0.401649
276 1 0.412978 0.437151 0.397532
302 2 0.315655 0.435136 0.311194
166 1 0.452086 0.296208 0.270018
65 1 0.502502 0.31348 0.419288
86 1 0.653104 0.411572 0.429757
37 1 0.619826 0.309941 0.319112
51 1 0.541472 0.440106 0.312844
17 1 0.856137 0.436211 0.278756
148 1 0.770005 0.31252 0.327848
296 2 0.990887 0.453789 0.279436
227 1 0.911715 0.283112 0.29212
142 1 0.895316 0.380109 0.434097
95 1 0.767708 0.31665 0.49858
78 1 0.172831 0.248335 0.640556
25 1 0.0376997 0.197265 0.70015
74 1 0.108148 0.0514437 0.622009
323 2 0.0212667 0.0720303 0.733584
103 1 0.10775 0.167486 0.532289
64 1 0.250779 0.108756 0.613564
295 2 0.284388 0.205146 0.688432
244 1 0.405371 0.103906 0.625571
225 1 0.30548 0.235798 0.552949
222 1 0.300964 0.0509429 0.744052
340 2 0.456911 0.123838 0.738762
252 1 0.33078 0.0358976 0.512067
41 1 0.467934 0.190922 0.511648
214 1 0.557815 0.207945 0.645922
342 2 0.697015 0.162229 0.713091
199 1 0.66719 0.0800808 0.620426
316 2 0.55212 0.0502103 0.655185
338 2 0.74269 0.187494 0.555688
245 1 0.512122 0.0436375 0.522856
185 1 0.628499 0.212882 0.505064
114 1 0.961492 0.0785215 0.595826
160 1 0.823708 0.139765 0.639589
320 2 0.90902 0.193813 0.717129
324 2 0.883975 0.0226472 0.680346
20 1 0.92056 0.249464 0.584663
179 1 0.0527476 0.308104 0.56598
305 2 0.117085 0.361438 0.67659
38 1 0.16506 0.434781 0.583539
3 1 0.015472 0.434246 0.651476
283 1 0.187286 0.441406 0.744495
220 1 0.425501 0.262831 0.650694
351 2 0.269459 0.367804 0.523854
162 1 0.289852 0.353468 0.655019
332 2 0.428782 0.482645 0.583593
262 1 0.402962 0.365746 0.541449
253 1 0.314734 0.478534 0.522062
13 1 0.369195 0.480917 0.690939
298 2 0.52052 0.320846 0.555512
280 1 0.520203 0.404857 0.653554
58 1 0.642293 0.355362 0.581591
223 1 0.617629 0.307194 0.745345
144 1 0.745712 0.465516 0.527285
165 1 0.728739 0.415302 0.703879
255 1 0.523899 0.470652 0.503452
33 1 0.889294 0.476711 0.732304
152 1 0.873051 0.321667 0.741909
299 2 0.966483 0.446069 0.527427
333 2 0.977601 0.307127 0.671903
96 1 0.76096 0.270905 0.653922
143 1 0.863999 0.400191 0.604156
356 2 0.10483 0.2042 0.988052
242 1 0.224563 0.00983433 0.893205
217 1 0.166351 0.119995 0.750468
145 1 0.0530466 0.0989774 0.860937
108 1 0.200012 0.157356 0.887157
321 2 0.0841963 0.217024 0.860152
156 1 0.489057 0.219746 0.811935
83 1 0.349581 0.179792 0.802992
192 1 0.398823 0.044153 0.876319
318 2 0.428456 0.16051 0.907598
221 1 0.581887 0.108855 0.762331
153 1 0.734505 0.0198781 0.758112
133 1 0.534959 0.0908095 0.905062
254 1 0.69307 0.0688096 0.906515
335 2 0.73032 0.213171 0.974148
237 1 0.665755 0.223084 0.863636
341 2 0.604788 0.000301601 0.967562
106 1 0.791128 0.170662 0.785922
274 1 0.953698 0.222522 0.839911
43 1 0.909597 0.0762288 0.79341
174 1 0.846123 0.148034 0.945614
75 1 0.951898 0.0253812 0.9662
123 1 0.98158 0.178349 0.998252
2 1 0.199031 0.279044 0.978678
19 1 0.156672 0.401883 0.882646
286 1 0.0482169 0.309977 0.940357
42 1 0.0316068 0.339431 0.77051
167 1 0.209306 0.277219 0.789827
287 1 0.0507105 0.495665 0.788422
205 1 0.477355 0.271115 0.95701
161 1 0.419067 0.416509 0.947771
187 1 0.322551 0.305785 0.886266
22 1 0.304698 0.436135 0.824523
10 1 0.434146 0.357461 0.780302
334 2 0.270077 0.412705 0.938689
312 2 0.536848 0.477859 0.897534
247 1 0.597718 0.478999 0.773832
16 1 0.707307 0.400204 0.852655
211 1 0.567158 0.356675 0.875038
141 1 0.724182 0.349423 0.99097
243 1 0.676209 0.499856 0.954312
209 1 0.822712 0.4555 0.97218
304 2 0.821617 0.449714 0.834599
281 1 0.809818 0.290969 0.889675
182 1 0.93293 0.385436 0.887799
270 1 0.0281455 0.617731 0.0967748
170 1 0.131031 0.721281 0.16182
258 1 0.150287 0.575665 0.197725
32 1 0.174866 0.60829 0.0352515
275 1 0.00985618 0.725406 0.229706
311 2 0.0974827 0.517346 0.0717667
119 1 0.476454 0.60939 0.133453
319 2 0.351969 0.573602 0.114492
48 1 0.283669 0.683976 0.165408
246 1 0.338345 0.684269 0.0204339
290 2 0.483963 0.746457 0.212322
347 2 0.284762 0.559699 0.247906
62 1 0.623175 0.596322 0.0780565
154 1 0.690225 0.580479 0.230906
169 1 0.744255 0.729299 0.102338
39 1 0.585303 0.74436 0.13935
52 1 0.700233 0.735073 0.243328
359 2 0.565998 0.72185 0.0073677
201 1 0.956346 0.571599 0.235003
358 2 0.776658 0.591426 0.137236
121 1 0.883036 0.666863 0.113879
306 2 0.925233 0.587271 0.02078
176 1 0.798108 0.597775 0.0160005
314 2 0.236471 0.799329 0.222906
232 1 0.110597 0.885172 0.137984
87 1 0.232648 0.921622 0.231856
157 1 0.207878 0.923575 0.0198678
207 1 0.172762 0.781797 0.0189077
202 1 0.474425 0.988672 0.00907307
89 1 0.284866 0.819035 0.114875
107 1 0.427669 0.764811 0.100098
230 1 0.357443 0.946214 0.101109
273 1 0.357888 0.829562 0.246815
116 1 0.487258 0.895572 0.156722
250 1 0.627922 0.94125 0.0970291
30 1 0.712313 0.881013 0.205516
330 2 0.672929 0.832174 0.0786722
315 2 0.739693 0.99253 0.128662
60 1 0.570013 0.846229 0.000304735
97 1 0.955939 0.932191 0.0960111
313 2 0.859325 0.774901 0.058835
150 1 0.995048 0.790345 0.0731372
233 1 0.846647 0.966144 0.198286
120 1 0.849798 0.815505 0.196068
197 1 0.790341 0.88395 0.0775467
181 1 0.988008 0.874986 0.233697
355 2 0.180721 0.691809 0.425818
4 1 0.0453815 0.678133 0.401311
147 1 0.209874 0.659351 0.319309
303 2 0.0834638 0.635187 0.286626
265 1 0.0836944 0.526401 0.330701
35 1 0.174274 0.569038 0.453927
140 1 0.420993 0.524684 0.252673
172 1 0.313369 0.551063 0.372386
70 1 0.325031 0.694398 0.446514
188 1 0.391038 0.677614 0.2903
177 1 0.472747 0.582322 0.392775
50 1 0.486879 0.749043 0.47163
336 2 0.633926 0.530363 0.484264
72 1 0.563254 0.651806 0.256976
293 2 0.505661 0.687844 0.358362
104 1 0.616651 0.575553 0.373963
59 1 0.631957 0.725636 0.400679
291 2 0.741649 0.645123 0.36251
235 1 0.736519 0.618622 0.490604
67 1 0.761833 0.511132 0.381171
139 1 0.939952 0.51234 0.383888
155 1 0.840445 0.658081 0.263223
271 1 0.873434 0.683311 0.427309
289 2 0.100536 0.921192 0.275783
54 1 0.128011 0.800538 0.298454
128 1 0.108745 0.810044 0.449188
102 1 0.17221 0.931414 0.381741
326 2 0.0429708 0.937187 0.39589
353 2 0.272198 0.884666 0.466208
34 1 0.263497 0.80703 0.365475
346 2 0.393095 0.776661 0.367245
122 1 0.382445 0.889744 0.400282
264 1 0.498241 0.82782 0.313484
257 1 0.531728 0.908943 0.430012
354 2 0.606493 0.821934 0.25347
100 1 0.576247 0.953323 0.281711
69 1 0.677828 0.866411 0.361995
348 2 0.812902 0.904329 0.30821
149 1 0.775823 0.913522 0.465192
94 1 0.756388 0.775691 0.498432
134 1 0.979978 0.80673 0.373058
343 2 0.871443 0.819028 0.466531
23 1 0.80803 0.78349 0.344543
268 1 0.910105 0.946753 0.358764
28 1 0.13006 0.561503 0.675529
113 1 0.120171 0.677906 0.551519
294 2 0.0382697 0.715112 0.664437
206 1 0.168454 0.706598 0.688714
249 1 0.0491985 0.536116 0.53885
327 2 0.248712 0.517427 0.642925
159 1 0.264056 0.627836 0.5756
357 2 0.37204 0.611489 0.657328
80 1 0.411737 0.594277 0.537846
173 1 0.468083 0.708685 0.625954
66 1 0.498215 0.55847 0.689758
36 1 0.314965 0.742001 0.669027
125 1 0.574167 0.632653 0.516732
8 1 0.691736 0.678935 0.622417
73 1 0.635243 0.535779 0.629576
300 2 0.60284 0.636469 0.721293
135 1 0.788575 0.565484 0.645853
130 1 0.971977 0.593073 0.656162
212 1 0.868742 0.693689 0.592254
309 2 0.988646 0.637087 0.515159
115 1 0.871931 0.555889 0.512738
260 1 0.239294 0.786336 0.538451
278 1 0.108545 0.828446 0.621278
203 1 0.223858 0.862754 0.722268
266 1 0.00659856 0.954034 0.680464
285 1 0.0278559 0.917658 0.527678
200 1 0.190312 0.952483 0.546585
210 1 0.387347 0.844768 0.537556
239 1 0.32791 0.946822 0.636989
127 1 0.439112 0.833572 0.723787
360 2 0.423836 0.96945 0.557805
105 1 0.456452 0.978752 0.734959
6 1 0.611994 0.802863 0.536269
195 1 0.519021 0.897213 0.603949
71 1 0.586797 0.76499 0.706238
261 1 0.651378 0.929272 0.678505
272 1 0.643829 0.958368 0.520814
349 2 0.725372 0.872559 0.588596
101 1 0.763052 0.80064 0.679331
138 1 0.79524 0.982048 0.596124
110 1 0.984071 0.765976 0.527321
68 1 0.843743 0.912027 0.726391
190 1 0.934293 0.800628 0.703105
131 1 0.880379 0.855494 0.580997
82 1 0.0460608 0.590418 0.947475
63 1 0.18615 0.717759 0.843443
218 1 0.204655 0.544337 0.861626
194 1 0.038614 0.667144 0.801172
308 2 0.2313 0.694918 0.952668
269 1 0.442658 0.528715 0.830613
175 1 0.498373 0.569929 0.99161
228 1 0.28624 0.593569 0.752355
136 1 0.33342 0.627363 0.881343
14 1 0.459306 0.713371 0.947654
5 1 0.312466 0.521337 0.992114
193 1 0.472225 0.695016 0.783261
46 1 0.702655 0.705627 0.792319
282 1 0.606058 0.600332 0.849597
129 1 0.668505 0.678976 0.965177
24 1 0.746502 0.554863 0.807336
21 1 0.868317 0.658621 0.762421
57 1 0.917449 0.701193 0.947662
297 2 0.799996 0.665985 0.903315
118 1 0.904356 0.54836 0.877118
98 1 0.0762812 0.817436 0.773636
240 1 0.0564898 0.768443 0.919274
344 2 0.0937643 0.950228 0.876537
56 1 0.188664 0.86091 0.877801
49 1 0.0593797 0.905899 0.981203
132 1 0.138562 0.973016 0.766169
238 1 0.32786 0.772298 0.803999
337 2 0.351816 0.953506 0.955832
27 1 0.465605 0.898829 0.890507
40 1 0.323771 0.917142 0.820842
186 1 0.32203 0.827194 0.972253
92 1 0.595958 0.959915 0.846968
310 2 0.564086 0.874793 0.752858
55 1 0.702984 0.868249 0.799635
178 1 0.696907 0.909574 0.956398
117 1 0.592281 0.776376 0.869112
112 1 0.974714 0.939136 0.836451
91 1 0.777364 0.787849 0.962668
126 1 0.826929 0.961006 0.868496
301 2 0.961915 0.795866 0.845457
184 1 0.907501 0.86198 0.957124
137 1 0.839261 0.800498 0.829871
ITEM: TIMESTEP
60000
ITEM: NUMBER OF ATOMS
360
ITEM: BOX BOUNDS pp pp pp
0.0000000000000000e+00 6.6943295008216896e+00
0.0000000000000000e+00 6.6943295008216896e+00
0.0000000000000000e+00 6.6943295008216896e+00
ITEM: ATOMS id type xs ys zs
241 1 0.143636 0.180408 0.113635
356 2 0.0499313 0.127414 0.0487261
12 1 0.0561527 0.0760937 0.185489
99 1 0.205927 0.0106293 0.254445
289 2 0.810961 0.464011 0.0215223
108 1 0.254002 0.0674653 0.113235
229 1 0.277645 0.15399 0.243355
100 1 0.479642 0.0860386 0.201439
26 1 0.407631 0.218405 0.206732
288 1 0.378871 0.131346 0.0519596
146 1 -0.011154 0.420239 0.107019
31 1 0.615037 0.119638 0.150089
124 1 0.557404 0.254269 0.143201
325 2 0.721651 0.121773 0.22132
237 1 0.675966 0.213784 0.0373043
93 1 0.944972 0.176911 0.122384
123 1 0.788513 0.166523 0.118595
344 2 0.972638 0.200097 0.244784
189 1 0.840744 0.135359 0.257877
179 1 0.131012 0.341829 0.500764
148 1 0.783555 0.480135 0.30246
231 1 0.0414725 0.293617 0.173845
4 1 0.0712731 0.457947 0.376605
236 1 0.207611 0.306707 0.223622
109 1 0.17618 0.395119 0.0980783
319 2 0.437201 0.497863 0.0851771
61 1 0.279892 0.258449 0.0924713
251 1 0.861662 0.36 0.386972
347 2 0.349614 0.325267 0.170361
267 1 0.324411 0.440134 0.125979
81 1 0.458226 0.383193 0.200635
84 1 0.412668 0.301687 0.0607228
315 2 0.776329 0.365558 0.253642
47 1 0.352299 0.024933 0.279785
204 1 0.536845 0.411643 0.0692548
307 2 0.663121 0.330584 0.118688
126 1 0.693062 0.441352 0.174288
65 1 0.603673 0.362058 0.275279
224 1 0.710293 0.26234 0.205187
219 1 0.803624 0.318519 0.0868752
317 2 0.921147 0.291142 0.0802523
5 1 0.848828 0.451957 0.146717
351 2 0.175264 0.459534 0.485374
2 1 0.0487583 0.278865 0.0248552
216 1 0.890985 0.297847 0.224346
329 2 0.178597 0.287253 0.00852474
76 1 0.104105 0.185861 0.267123
29 1 0.0962447 0.107345 0.412351
11 1 0.258723 0.088346 0.399195
172 1 0.187563 0.219309 0.384779
37 1 0.466298 0.493403 0.351169
328 2 0.222532 0.44845 0.219315
15 1 0.411676 0.169454 0.360854
268 1 0.757551 0.00140385 0.216055
168 1 0.40651 0.0260338 0.442586
69 1 0.626204 0.0378196 0.288943
77 1 0.812357 0.229501 0.471481
191 1 0.568181 0.102199 0.410678
185 1 0.551078 0.2048 0.28644
141 1 0.715108 0.184106 0.337869
339 2 0.744128 0.0546684 0.335655
225 1 0.720343 0.0883972 0.466321
277 1 0.520661 0.183448 0.00783506
9 1 0.972426 0.0737442 0.306557
88 1 0.854115 0.0900026 0.416251
227 1 0.93901 0.199799 0.393757
348 2 0.832899 0.241892 0.319274
265 1 0.0442603 0.302969 0.375348
44 1 0.100905 0.411691 0.23516
13 1 0.199445 0.382409 0.354712
252 1 0.327018 0.234852 0.467992
140 1 0.34101 0.427453 0.283367
256 1 0.510855 0.236159 0.460054
163 1 0.322614 0.287018 0.326949
166 1 0.317244 0.471632 0.423574
7 1 0.469687 0.316921 0.338368
313 2 0.708487 0.0342163 0.0745342
275 1 0.961468 0.416581 0.273863
17 1 0.742773 0.454773 0.445211
45 1 0.663331 0.228367 0.484997
255 1 0.594476 0.374547 0.458042
302 2 0.603537 0.284785 0.377874
86 1 0.712627 0.327037 0.363914
358 2 0.973152 0.418405 0.429273
318 2 0.5005 0.0697237 0.0675915
292 2 0.46697 0.0629925 0.334891
1 1 0.141355 0.0336554 0.00845992
114 1 0.0547277 0.212826 0.498989
171 1 0.880625 0.462082 0.505177
192 1 0.195011 0.192908 0.544057
40 1 0.174585 0.0868492 0.65678
83 1 0.0733486 0.212701 0.759907
321 2 0.118116 0.196096 0.646189
25 1 -0.00239917 0.167753 0.631657
295 2 0.0837236 0.102719 0.562386
101 1 0.576558 0.00190122 0.692802
28 1 0.229002 0.457414 0.71004
10 1 0.302579 0.181977 0.685792
222 1 0.436268 0.228339 0.595992
322 2 0.532288 0.189731 0.68389
221 1 0.406562 0.0526215 0.79322
200 1 0.464166 0.0854961 0.642721
64 1 0.330153 0.117127 0.544567
41 1 0.588342 0.139307 0.588849
262 1 0.712664 0.226066 0.650255
153 1 0.630858 0.143925 0.738518
149 1 0.702732 0.0269911 0.615596
42 1 0.946149 0.410254 0.799191
43 1 0.831096 0.132688 0.589991
199 1 0.818599 0.159247 0.741887
301 2 0.946892 0.167359 0.740387
79 1 0.909863 0.0529487 0.684993
95 1 0.890142 0.256866 0.654485
360 2 0.469641 0.109144 0.513291
331 2 0.924273 0.185568 0.52596
281 1 0.789318 0.276563 0.912255
19 1 0.191667 0.294538 0.680839
286 1 0.0542665 0.315581 0.622362
296 2 0.125414 0.416867 0.632761
115 1 0.0321594 0.460955 0.543363
182 1 0.918982 0.377905 0.966145
38 1 0.272108 0.38698 0.562741
305 2 0.288857 0.26051 0.584204
78 1 0.430331 0.352113 0.495994
220 1 0.356829 0.334093 0.667921
338 2 0.481524 0.315245 0.683835
152 1 0.576136 0.45036 0.913986
304 2 0.711808 0.238385 0.78692
276 1 0.63377 0.478849 0.560312
205 1 0.524183 0.438285 0.671269
350 2 0.666058 0.352148 0.55499
253 1 0.573122 0.290784 0.603546
214 1 0.68918 0.38402 0.68054
181 1 0.165258 0.0100866 0.525235
223 1 0.813463 0.348682 0.746483
211 1 0.797143 0.340128 0.566085
165 1 0.909926 0.412101 0.636701
299 2 0.979679 0.311949 0.722514
142 1 0.784943 0.499101 0.617748
56 1 0.209144 0.157764 0.813713
217 1 0.0767922 0.0636788 0.770908
274 1 0.066275 0.157482 0.926849
357 2 0.130776 0.0303389 0.884954
320 2 0.0281951 0.321973 0.891737
162 1 0.435253 0.204857 0.750998
132 1 0.302913 0.0231494 0.946467
187 1 0.351004 0.157277 0.891355
279 1 0.419327 0.29019 0.901378
27 1 0.470133 0.0251398 0.941841
310 2 0.327801 0.242394 0.975956
197 1 0.610069 0.0669571 0.999474
254 1 0.801624 0.0367538 0.829194
174 1 0.523651 0.146719 0.863464
160 1 0.685961 0.1667 0.89746
180 1 0.953059 0.315125 0.509106
68 1 0.940493 0.100654 0.847085
278 1 0.916224 0.266241 0.829134
234 1 0.796125 0.0995732 0.980922
345 2 0.818132 0.161063 0.863267
263 1 0.630477 0.0369508 0.840559
103 1 0.0888971 0.366939 0.772716
167 1 0.154272 0.286863 0.888848
218 1 0.072626 0.407197 0.969598
355 2 0.171377 0.41875 0.882194
298 2 0.403175 0.443226 0.582326
161 1 0.302449 0.280109 0.811439
22 1 0.321294 0.437668 0.832308
269 1 0.405071 0.430449 0.957329
283 1 0.274973 0.354331 0.960942
193 1 0.461456 0.379383 0.792474
342 2 0.582818 0.412153 0.775511
158 1 0.682619 0.37308 0.853016
145 1 0.218626 0.164506 0.97353
106 1 0.577877 0.285271 0.768076
16 1 0.57574 0.295948 0.92674
20 1 0.0617094 0.498305 0.703667
306 2 0.826585 0.387332 0.873676
203 1 0.31241 0.0277202 0.667694
210 1 0.222319 0.00935863 0.803156
85 1 0.714042 0.39372 1.00426
201 1 0.928274 0.199051 0.973082
75 1 0.943633 0.0382909 1.00841
18 1 0.975642 0.0637378 0.515258
280 1 0.377907 0.49105 0.700411
258 1 0.0908856 0.556913 0.166634
242 1 0.316633 0.890378 0.0197243
226 1 0.199641 0.614629 0.0781932
170 1 0.973518 0.679505 0.132041
308 2 0.0839069 0.685063 0.0484126
32 1 0.0410421 0.569394 0.0244598
119 1 0.452519 0.636785 0.109209
215 1 0.321013 0.537716 0.0201086
72 1 0.300696 0.583895 0.186054
314 2 0.411547 0.506283 0.211823
102 1 0.219646 0.927749 0.398444
48 1 0.682903 0.69118 0.0459187
104 1 0.533175 0.517377 0.184029
51 1 0.675231 0.599149 0.170742
154 1 0.63411 0.524171 0.0452139
337 2 0.575574 0.630906 0.0827802
264 1 0.555649 0.68257 0.233549
121 1 0.814424 0.722958 0.113359
139 1 0.92938 0.554427 0.218389
134 1 0.800498 0.578548 0.0779637
335 2 0.786207 0.553108 0.204803
311 2 0.925342 0.564556 0.0845023
198 1 0.193504 0.923838 0.129955
89 1 0.193876 0.781337 0.0626098
151 1 0.0812503 0.800564 0.172731
169 1 0.0838178 0.931975 0.259751
184 1 0.0426307 0.925827 0.0622406
246 1 0.336591 0.70574 0.0135491
164 1 0.337378 0.892443 0.215315
230 1 0.429486 0.811995 0.102588
120 1 0.310096 0.741961 0.165091
30 1 0.667054 0.865448 0.437164
324 2 0.912485 0.976864 0.428017
90 1 0.524352 0.887895 0.202829
178 1 0.559346 0.954346 0.0707341
116 1 0.577625 0.777637 0.111189
144 1 0.615349 0.504684 0.324531
39 1 0.710245 0.881007 0.118246
213 1 0.941545 0.902789 0.311493
196 1 0.700956 0.751135 0.217279
49 1 0.827897 0.962672 0.0673077
233 1 0.822318 0.862591 0.216847
270 1 0.930573 0.823366 0.106534
155 1 0.941404 0.757261 0.265857
52 1 0.814406 0.789397 0.359158
316 2 0.668361 0.980179 0.399032
271 1 0.0434556 0.62936 0.288274
54 1 0.187989 0.685932 0.228032
33 1 0.0811251 0.589618 0.460996
147 1 0.18144 0.548251 0.292832
293 2 0.318326 0.565663 0.316245
34 1 0.307321 0.694525 0.335285
177 1 0.401781 0.616507 0.428724
59 1 0.434026 0.612856 0.271527
312 2 0.776092 0.57478 0.377423
125 1 0.481684 0.499051 0.497937
336 2 0.558835 0.63099 0.358115
244 1 0.689067 0.643235 0.330127
6 1 0.551272 0.773969 0.369876
235 1 0.785529 0.676146 0.45836
94 1 0.956041 0.697782 0.397857
67 1 0.826222 0.655885 0.276612
135 1 0.928184 0.548775 0.373516
340 2 0.435808 0.913309 0.481935
326 2 0.123714 0.684017 0.379228
259 1 0.408259 0.978045 0.0953437
284 1 0.79809 0.948122 0.388841
208 1 0.0528714 0.949773 0.422633
232 1 0.201508 0.835892 0.271369
110 1 0.0725664 0.802344 0.378883
273 1 0.217957 0.768586 0.42849
188 1 0.401628 0.764401 0.451132
87 1 0.43999 0.770888 0.251136
257 1 0.515656 0.93661 0.356772
122 1 0.370003 0.881618 0.377538
23 1 0.93614 0.837895 0.452428
58 1 0.653163 0.603261 0.469507
343 2 0.862378 1.00027 0.290194
330 2 0.680097 0.779586 0.335814
354 2 0.587562 0.801331 0.248466
250 1 0.67171 0.887456 0.278037
35 1 0.230194 0.601069 0.417845
290 2 0.6234 0.97251 0.18126
303 2 0.303157 0.690288 0.484111
248 1 0.932866 0.983923 0.183801
66 1 0.515808 0.678957 0.510949
3 1 0.0657307 0.617353 0.623867
130 1 0.266225 0.604934 0.695165
98 1 0.925941 0.951075 0.797102
14 1 0.509654 0.729672 0.985862
80 1 0.376903 0.688737 0.601574
247 1 0.505836 0.586512 0.632492
159 1 0.33111 0.54739 0.546431
97 1 0.0654294 0.798898 0.978095
73 1 0.669159 0.606261 0.632185
209 1 0.8241 0.497283 0.796378
333 2 0.795694 0.555954 0.51124
173 1 0.673488 0.729739 0.551211
190 1 0.650272 0.75931 0.713866
118 1 0.964346 0.722342 0.690638
143 1 0.918166 0.617891 0.530481
266 1 0.80682 0.675113 0.620936
8 1 0.926144 0.566564 0.675292
291 2 0.886408 0.740266 0.533582
57 1 0.821373 0.776128 0.754741
260 1 0.191291 0.926595 0.6623
238 1 0.145754 0.768141 0.686993
285 1 0.0192251 0.748256 0.551164
128 1 0.192774 0.678356 0.564004
353 2 0.0448771 0.829612 0.647664
138 1 0.537318 0.828803 0.522205
346 2 0.27511 0.749362 0.708628
112 1 0.041961 0.945388 0.905866
300 2 0.405175 0.818696 0.582198
50 1 0.276739 0.806744 0.601664
133 1 0.451679 0.926266 0.629126
327 2 0.358453 0.904356 0.720135
127 1 0.391822 0.786125 0.727302
53 1 0.796517 0.827161 0.527007
239 1 0.513321 0.751445 0.648165
46 1 0.736627 0.52115 0.91081
131 1 0.658552 0.885381 0.603623
332 2 0.562045 0.871866 0.692744
212 1 0.922081 0.866527 0.654195
297 2 0.762662 0.787667 0.639885
156 1 0.784944 0.927968 0.697791
157 1 0.943561 0.708803 0.983416
137 1 0.920404 0.868503 0.96125
287 1 0.218347 0.542844 0.840407
82 1 0.194156 0.672856 0.947856
113 1 0.143597 0.646068 0.768736
207 1 0.0475996 0.660715 0.882891
129 1 0.78941 0.815607 1.00051
228 1 0.27213 0.699249 0.819191
36 1 0.401508 0.639823 0.752151
186 1 0.350598 0.601288 0.891727
359 2 0.479061 0.661808 0.865689
105 1 0.553922 0.994789 0.533166
323 2 0.727179 0.944971 0.500612
352 2 0.846539 0.98479 0.937391
243 1 0.607232 0.624135 0.90155
282 1 0.574958 0.640439 0.757825
261 1 0.550987 0.780561 0.836077
249 1 0.179228 0.524282 0.578962
24 1 0.802674 0.660288 0.930878
21 1 0.732878 0.643093 0.781433
176 1 0.899056 0.650861 0.810587
150 1 0.911487 0.540055 0.94277
74 1 0.138468 0.839528 0.534022
63 1 0.0752929 0.898496 0.754297
194 1 0.982497 0.797879 0.823012
240 1 0.193114 0.901248 0.918317
195 1 0.136991 0.781392 0.846
175 1 0.469304 0.530774 0.841353
272 1 0.250219 0.855364 0.77271
107 1 0.400947 0.761132 0.876479
202 1 0.476901 0.872065 0.968175
341 2 0.279452 0.802446 0.907286
60 1 0.360426 0.913138 0.862647
92 1 0.507916 0.925824 0.808026
55 1 0.799066 0.889202 0.856773
62 1 0.711546 0.971022 0.951955
117 1 0.704034 0.772169 0.869901
71 1 0.661611 0.906327 0.77741
349 2 0.591294 0.951048 0.932007
294 2 0.866865 0.771869 0.888789
334 2 0.0155855 0.604316 0.757409
111 1 0.0515585 0.517699 0.854372
91 1 0.638043 0.845636 0.981526
96 1 0.66713 0.508663 0.76317
309 2 1.00216 0.921784 0.536742
206 1 0.052377 0.992274 0.63714
245 1 0.853686 0.968502 0.540151
136 1 0.173957 0.505904 0.97321
70 1 0.305496 0.932155 0.524256
183 1 0.491623 0.571147 0.980448
ITEM: TIMESTEP
120000
ITEM: NUMBER OF ATOMS
360
ITEM: BOX BOUNDS pp pp pp
0.0000000000000000e+00 6.6943295008216896e+00
0.0000000000000000e+00 6.6943295008216896e+00
0.0000000000000000e+00 6.6943295008216896e+00
ITEM: ATOMS id type xs ys zs
317 2 0.131928 0.114112 0.0690245
213 1 0.15244 0.0591317 0.180002
265 1 0.116067 0.197302 0.183511
187 1 0.222823 0.202301 0.0427229
130 1 0.241421 0.468554 0.463756
231 1 0.00399818 0.0640223 0.236734
343 2 0.289832 0.0895949 0.0248077
259 1 0.457533 0.182286 0.197662
100 1 0.276215 0.166279 0.17736
99 1 0.425678 0.0315583 0.253664
332 2 0.451726 0.0645901 0.129078
163 1 0.251898 0.2662 0.287259
277 1 0.597707 0.0662532 0.218844
313 2 0.679063 0.157975 0.135282
153 1 0.544813 0.121727 0.0523368
62 1 0.658439 0.216217 0.0255254
268 1 0.732816 0.153563 0.255124
44 1 0.978049 0.180845 0.121056
244 1 0.87317 0.480025 0.360191
224 1 0.874162 0.215092 0.240216
93 1 0.810257 0.12478 0.105805
2 1 0.192174 0.32455 0.116109
315 2 0.0827632 0.267666 0.0746234
5 1 0.0525376 0.424702 0.123524
271 1 0.979587 0.46902 0.24823
76 1 0.00613966 0.298404 0.221167
242 1 0.0393393 0.0288937 0.0759229
347 2 0.272928 0.399615 0.189997
109 1 0.309548 0.427703 0.0623654
15 1 0.356291 0.306062 0.154648
237 1 0.464297 0.407548 0.0667764
81 1 0.375582 0.479989 0.221484
16 1 0.499452 0.362657 0.208791
7 1 0.60701 0.232208 0.212693
85 1 0.529593 0.272529 0.079829
191 1 0.625279 0.0590232 0.485812
255 1 0.630938 0.394541 0.140185
144 1 0.738096 0.452815 0.298907
345 2 0.736801 0.327169 0.0252705
69 1 0.680945 0.0549046 0.0602725
328 2 0.104362 0.500692 0.259013
31 1 0.742112 0.290122 0.144254
219 1 0.890099 0.294076 0.0863677
182 1 0.772757 0.442751 0.105682
275 1 0.863487 0.383452 0.2319
181 1 0.0878147 0.103208 0.353341
299 2 0.146213 0.234556 0.465674
326 2 0.194761 0.140464 0.286897
358 2 0.00967329 0.105744 0.475852
13 1 0.18755 0.492927 0.149217
65 1 0.913536 0.489473 0.0998467
49 1 0.281072 0.0497713 0.295629
192 1 0.245543 0.158967 0.419319
185 1 0.385649 0.181457 0.329523
229 1 0.387148 0.0429311 0.405559
252 1 0.48418 0.148738 0.441472
350 2 0.963335 0.452649 0.488609
318 2 0.497989 0.122758 0.31223
45 1 0.539346 0.0227404 0.374444
17 1 0.623483 0.175937 0.370506
165 1 0.877766 0.314249 0.379481
344 2 0.0124069 0.186509 0.27601
211 1 0.754082 0.251408 0.454294
330 2 0.822241 0.199828 0.359137
148 1 0.77005 0.0987118 0.440723
77 1 0.84734 0.063945 0.279879
216 1 0.942611 0.14264 0.372792
83 1 0.0181788 0.378929 0.384747
114 1 0.103959 0.252763 0.343193
145 1 0.388046 0.168848 0.0626613
241 1 0.141198 0.379699 0.248811
94 1 0.0182527 0.255817 0.468087
179 1 0.23205 0.314296 0.433449
312 2 0.141115 0.374671 0.37278
58 1 0.763421 0.398069 0.442745
177 1 0.457258 0.446145 0.365122
26 1 0.316141 0.386508 0.328054
172 1 0.371962 0.292893 0.431055
351 2 0.406436 0.291192 0.266715
253 1 0.510222 0.337148 0.481483
302 2 0.624742 0.308882 0.431677
38 1 0.525376 0.284674 0.344184
333 2 0.623418 0.374992 0.266418
124 1 0.727348 0.29916 0.301239
166 1 0.610725 0.420436 0.389836
338 2 0.565244 0.476841 -0.00122516
108 1 0.318355 0.0141868 0.133576
43 1 0.69215 0.00213981 0.331483
325 2 0.90172 0.404896 0.00887378
91 1 0.418963 0.0280661 0.00595734
283 1 0.143554 0.440952 0.0102196
10 1 0.205514 0.138773 0.666564
128 1 0.13341 0.12362 0.510355
147 1 0.393887 0.437318 0.506038
263 1 0.00602244 0.149773 0.590154
217 1 0.0478882 0.122274 0.729628
146 1 0.0138088 0.256495 0.845565
222 1 0.372838 0.102039 0.636232
64 1 0.271769 0.0593303 0.535787
274 1 0.280829 0.22065 0.55709
78 1 0.444538 0.232243 0.577669
106 1 0.461877 0.210448 0.728508
210 1 0.319116 0.0142658 0.779621
41 1 0.521975 0.107255 0.615604
149 1 0.634779 0.00698973 0.64122
199 1 0.740171 0.128175 0.591889
101 1 0.628242 0.236234 0.667163
167 1 0.207949 0.483877 0.708472
340 2 0.269618 0.0278526 0.658013
251 1 0.874183 0.0888894 0.649332
206 1 0.938918 0.0158195 0.761357
201 1 0.916258 0.215605 0.725517
202 1 0.739779 0.163729 0.747945
320 2 0.909406 0.292725 0.916327
295 2 0.0535439 0.269819 0.710493
95 1 0.12206 0.254476 0.600188
258 1 0.0132843 0.329396 0.992372
249 1 0.190945 0.29896 0.748653
40 1 0.230054 0.369104 0.60544
115 1 0.0771393 0.394689 0.699122
360 2 0.369514 0.133433 0.510912
227 1 0.774701 0.0122003 0.736688
322 2 0.365149 0.333849 0.565922
19 1 0.346596 0.307963 0.691231
280 1 0.353737 0.481427 0.654921
214 1 0.50451 0.385819 0.640906
339 2 0.669661 0.478789 0.618034
158 1 0.657329 0.381997 0.709817
276 1 0.65812 0.352862 0.54992
223 1 0.804387 0.276906 0.639089
142 1 0.784545 0.446307 0.603455
286 1 0.982614 0.304171 0.614082
150 1 0.935535 0.36541 0.733215
278 1 0.967144 0.469593 0.616672
56 1 0.176212 0.168505 0.829659
63 1 0.159858 0.0140193 0.793433
203 1 0.173717 0.0769406 0.954691
112 1 0.0299343 0.0589017 0.870698
68 1 0.0454878 0.170711 0.977625
171 1 0.882731 0.360653 0.521677
220 1 0.318955 0.169713 0.774216
174 1 0.312611 0.163469 0.932218
22 1 0.445149 0.112797 0.874558
346 2 0.999607 0.0318282 0.634815
20 1 0.562987 0.475933 0.542155
92 1 0.485643 0.0311117 0.751115
71 1 0.558623 0.0283943 0.902835
98 1 0.707823 0.0742723 0.874114
162 1 0.585846 0.150307 0.797151
304 2 0.619134 0.136031 0.933041
75 1 0.686929 0.253183 0.882192
288 1 0.519479 0.241404 0.935825
331 2 0.786965 0.0990111 0.968881
55 1 0.858981 0.132815 0.845464
256 1 0.602044 0.206367 0.526082
118 1 0.0747875 0.399225 0.84307
269 1 0.245917 0.397271 0.866608
32 1 0.929734 0.41148 0.884776
180 1 0.0932822 0.378942 0.514984
321 2 0.260857 0.273638 0.850145
301 2 0.313417 0.410413 0.761891
161 1 0.37799 0.311391 0.846025
296 2 0.342486 0.439624 0.940049
279 1 0.474453 0.404525 0.919797
28 1 0.44977 0.448054 0.778166
218 1 0.813131 0.225991 0.972153
61 1 0.375643 0.307469 0.992453
74 1 0.130178 0.019392 0.631428
197 1 0.6166 0.358767 0.973955
96 1 0.594558 0.490512 0.824282
306 2 0.676986 0.369485 0.837422
123 1 0.549099 0.321027 0.804479
175 1 0.803225 0.441731 0.773807