ITEM: TIMESTEP
0
ITEM: NUMBER OF ATOMS
360
ITEM: BOX BOUNDS pp pp pp
0.0000000000000000e+00 6.6943295008216896e+00
0.0000000000000000e+00 6.6943295008216896e+00
0.0000000000000000e+00 6.6943295008216896e+00
ITEM: ATOMS id type xs ys zs
160 1 0.0508142 0.21749 0.164651
148 1 0.153723 0.0909776 0.0945394
324 2 0.208755 0.218261 0.130365
105 1 0.047225 0.0293171 0.211566
175 1 0.00084568 0.104099 0.0607736
296 2 0.0737066 0.0100271 0.0269292
317 2 0.170036 0.0254506 0.21842
214 1 0.170056 0.155687 0.241519
45 1 0.100854 0.218339 0.00899226
341 2 0.252241 0.0137619 0.1043
183 1 0.419411 0.031733 0.122237
134 1 0.302784 0.117151 0.185912
34 1 0.43458 0.149115 0.0299806
270 1 0.445868 0.161873 0.208417
155 1 0.27654 0.173701 0.0185556
30 1 0.554984 0.0511256 0.193589
230 1 0.680373 0.121978 0.0745964
286 1 0.59744 0.199707 0.210277
335 2 0.559159 0.147478 0.0970017
113 1 0.563386 0.0398326 0.0285887
355 2 0.770693 0.205624 0.040479
15 1 0.789337 0.150851 0.176835
251 1 0.909262 0.216631 0.113615
58 1 0.839647 0.0827136 0.0280224
288 1 0.874909 0.0251408 0.19387
358 2 0.0132434 0.448502 0.172509
334 2 0.0550698 0.336782 0.034209
262 1 0.210306 0.319536 0.0502078
140 1 0.105547 0.36171 0.164934
28 1 0.247388 0.303651 0.222566
231 1 0.0825644 0.455495 0.0443525
321 2 0.215669 0.434254 0.241131
246 1 0.260291 0.449969 0.127487
178 1 0.349919 0.265013 0.11559
22 1 0.399169 0.42991 0.0429406
13 1 0.387169 0.378355 0.217784
247 1 0.511222 0.273511 0.0889465
225 1 0.667212 0.292246 0.0787056
53 1 0.704583 0.437401 0.103692
197 1 0.648073 0.350382 0.220935
199 1 0.532288 0.436131 0.143931
359 2 0.503534 0.300555 0.217883
73 1 0.820662 0.327455 0.0184294
344 2 0.755744 0.425907 0.218314
319 2 0.833243 0.425158 0.0975882
190 1 0.956416 0.356834 0.10471
57 1 0.798192 0.310534 0.163794
209 1 0.885891 0.436045 0.223823
107 1 0.954327 0.303751 0.244528
318 2 0.15376 0.00819152 0.452164
220 1 0.212631 0.0405749 0.355392
103 1 0.0750848 0.109148 0.371247
21 1 0.198491 0.207822 0.374735
331 2 0.075374 0.221936 0.297109
315 2 0.393349 0.0424464 0.261167
339 2 0.351804 0.247036 0.273795
268 1 0.35292 0.136544 0.345288
6 1 0.458355 0.248814 0.343749
62 1 0.421139 0.102072 0.486452
48 1 0.267056 0.0221406 0.499604
218 1 0.488028 0.0888364 0.344793
31 1 0.555392 0.191129 0.474919
8 1 0.62666 0.053755 0.404539
192 1 0.694314 0.104862 0.27676
90 1 0.69677 0.184566 0.430869
320 2 0.600513 0.16298 0.334325
161 1 0.94498 0.140994 0.25103
342 2 0.830556 0.0796807 0.292118
85 1 0.928706 0.134469 0.416886
168 1 0.784919 0.0434973 0.408114
60 1 0.921593 0.00838176 0.343635
224 1 0.82931 0.201944 0.3207
283 1 0.0127476 0.277923 0.394396
74 1 0.154206 0.34371 0.34354
157 1 0.074239 0.443114 0.464946
94 1 0.0350867 0.434364 0.308877
110 1 0.248785 0.432987 0.480219
252 1 0.178163 0.497655 0.353481
253 1 0.144503 0.277295 0.498069
240 1 0.329072 0.460333 0.32895
87 1 0.308959 0.324565 0.390834
222 1 0.448664 0.399394 0.436003
352 2 0.540309 0.318482 0.486613
82 1 0.599568 0.433205 0.436356
184 1 0.608864 0.291957 0.355546
76 1 0.735348 0.380479 0.343703
302 2 0.716473 0.265555 0.285544
202 1 0.508228 0.398405 0.301801
112 1 0.62048 0.496566 0.278654
14 1 0.887847 0.373892 0.372221
102 1 0.800111 0.469273 0.464916
92 1 0.823581 0.267771 0.458236
86 1 0.166542 0.210228 0.638569
293 2 0.216129 0.0844699 0.604979
250 1 0.0563189 0.0948163 0.644201
171 1 0.126225 0.123315 0.512457
243 1 0.174178 0.0346222 0.729389
101 1 0.000710599 0.0366642 0.516654
111 1 0.344062 0.0962687 0.634081
345 2 0.398002 0.197642 0.724988
118 1 0.470906 0.177026 0.627082
348 2 0.461654 0.0273707 0.621454
332 2 0.317093 0.0204577 0.738907
280 1 0.270384 0.168179 0.514742
91 1 0.604426 0.153723 0.698336
260 1 0.578736 0.0686969 0.558863
150 1 0.744606 0.225809 0.638245
236 1 0.733656 0.0610706 0.644131
299 2 0.678207 0.136552 0.556358
71 1 0.992529 0.193217 0.552264
141 1 0.877502 0.121107 0.709744
24 1 0.826553 0.136227 0.545445
311 2 0.935859 0.0688152 0.617309
97 1 0.996826 0.225913 0.705728
349 2 0.897186 0.24559 0.640041
249 1 0.0582476 0.347295 0.616362
125 1 0.224428 0.371312 0.625534
146 1 0.081622 0.462884 0.726297
323 2 0.00496897 0.46544 0.599885
63 1 0.324591 0.257493 0.643002
340 2 0.320566 0.369566 0.722938
114 1 0.375056 0.41297 0.584007
9 1 0.448547 0.329457 0.694571
158 1 0.392883 0.471414 0.718763
116 1 0.422342 0.270056 0.507643
312 2 0.281208 0.307219 0.529692
298 2 0.689752 0.349157 0.645061
233 1 0.530797 0.434995 0.57324
120 1 0.574159 0.287024 0.611177
77 1 0.599626 0.418227 0.704475
23 1 0.679148 0.465021 0.566643
137 1 0.674849 0.312677 0.510377
65 1 0.761544 0.421181 0.731808
213 1 0.812359 0.361727 0.587687
185 1 0.918007 0.405219 0.69471
169 1 0.938018 0.385961 0.518405
281 1 0.107915 0.162002 0.793546
4 1 0.0661154 0.0664301 0.915048
109 1 0.216411 0.21301 0.891672
264 1 0.24525 0.0469384 0.867023
300 2 0.178165 0.11553 0.965001
138 1 0.282259 0.165965 0.757405
47 1 0.437064 0.0743424 0.751079
221 1 0.373884 0.141625 0.878142
316 2 0.455907 0.0560595 0.940694
208 1 0.33285 0.0152381 0.995289
115 1 0.704595 0.00321585 0.7955
147 1 0.507447 0.214655 0.804695
194 1 0.572393 0.175517 0.97035
206 1 0.557613 0.0649826 0.855594
289 2 0.626351 0.171424 0.848223
66 1 0.707758 0.0921042 0.928729
201 1 0.747188 0.157798 0.781479
32 1 0.95616 0.2425 0.975356
49 1 0.987197 0.0354387 0.791103
124 1 0.955167 0.188577 0.83943
279 1 0.826492 0.202595 0.916882
346 2 0.942929 0.115697 0.948611
226 1 0.847426 0.0672 0.851131
333 2 0.0567438 0.25158 0.883054
291 2 0.00386667 0.468419 0.840746
204 1 0.155246 0.301874 0.760403
106 1 0.132566 0.352461 0.915285
95 1 0.232529 0.443343 0.769328
241 1 0.000955099 0.345744 0.805227
255 1 0.239122 0.468725 0.975611
301 2 0.258093 0.330288 0.853083
275 1 0.324728 0.304481 0.962016
154 1 0.362021 0.436295 0.870322
68 1 0.36541 0.284401 0.813046
72 1 0.465006 0.279837 0.938784
70 1 0.690892 0.254541 0.93963
100 1 0.507742 0.379503 0.828756
328 2 0.576765 0.293491 0.897464
12 1 0.643567 0.44089 0.848667
143 1 0.645861 0.281824 0.775005
292 2 0.708678 0.389168 0.972434
193 1 0.571246 0.385387 0.975745
5 1 0.806119 0.468966 0.974192
135 1 0.851406 0.284424 0.758954
41 1 0.883111 0.443618 0.837248
326 2 0.882668 0.318303 0.891538
276 1 0.964843 0.408484 0.955038
75 1 0.765613 0.350822 0.862821
189 1 0.0559024 0.642942 0.145701
360 2 0.171858 0.643384 0.202473
130 1 0.215876 0.606239 0.086436
187 1 0.116454 0.743932 0.0495616
258 1 0.115516 0.515105 0.194434
16 1 0.0613997 0.598326 0.00214946
104 1 0.274037 0.583306 0.240735
261 1 0.380199 0.67823 0.170394
327 2 0.341264 0.57806 0.120702
256 1 0.481561 0.58049 0.0800413
277 1 0.251667 0.747499 0.116968
200 1 0.426834 0.526701 0.2203
159 1 0.52863 0.649379 0.222381
188 1 0.625424 0.568117 0.129068
133 1 0.720346 0.675247 0.0561366
145 1 0.798156 0.556956 0.122866
126 1 0.907331 0.674121 0.0683973
219 1 0.807923 0.714367 0.183754
19 1 0.912444 0.595739 0.207288
176 1 0.935542 0.510289 0.0699417
234 1 0.126331 0.775623 0.202897
142 1 0.136887 0.908051 0.124223
357 2 0.220057 0.830856 0.026364
351 2 0.231883 0.832667 0.20416
69 1 0.454828 0.915665 0.0130674
265 1 0.302125 0.893019 0.0987816
290 2 0.390024 0.792115 0.0792156
117 1 0.385008 0.834262 0.222312
325 2 0.479664 0.878045 0.148787
51 1 0.293181 0.972727 0.234923
205 1 0.502564 0.758275 0.106071
35 1 0.651609 0.760554 0.165975
217 1 0.589573 0.908117 0.112099
18 1 0.726183 0.867195 0.059181
350 2 0.708068 0.862986 0.193061
127 1 0.720104 0.996671 0.161243
303 2 0.692143 0.997237 0.0278307
313 2 0.811906 0.758813 0.0643053
119 1 0.98352 0.810632 0.107813
287 1 0.837226 0.864249 0.154737
263 1 0.967804 0.955608 0.100935
294 2 0.823341 0.966385 0.0721699
282 1 0.10249 0.615434 0.462496
242 1 0.0956042 0.625386 0.302111
295 2 0.0300978 0.534209 0.389799
129 1 0.221309 0.722848 0.452311
173 1 0.236117 0.722833 0.292218
235 1 0.265586 0.594391 0.40784
67 1 0.40322 0.65419 0.313205
44 1 0.463145 0.685915 0.46981
343 2 0.34334 0.731465 0.392789
83 1 0.384726 0.526578 0.491478
139 1 0.513735 0.556666 0.385868
216 1 0.684993 0.64586 0.257349
245 1 0.68675 0.562371 0.411113
93 1 0.58188 0.70143 0.370796
269 1 0.725303 0.727639 0.432471
132 1 0.772532 0.529776 0.290716
210 1 0.902848 0.522073 0.367918
223 1 0.970547 0.737183 0.254668
227 1 0.832909 0.620061 0.491765
198 1 0.969234 0.676968 0.408932
25 1 0.838052 0.67216 0.333178
122 1 0.0594116 0.941922 0.409479
164 1 0.14695 0.916349 0.283902
167 1 0.190006 0.876172 0.451405
278 1 0.0895693 0.779702 0.353495
50 1 0.475363 0.943796 0.261585
170 1 0.290007 0.851981 0.344471
272 1 0.445173 0.82776 0.373864
337 2 0.31047 0.912877 0.462006
195 1 0.370075 0.984276 0.379257
307 2 0.487681 0.824538 0.493169
20 1 0.547601 0.805685 0.255992
156 1 0.513584 0.963255 0.443248
123 1 0.707071 0.809149 0.307463
297 2 0.698954 0.914421 0.385032
36 1 0.625006 0.942639 0.276727
40 1 0.597421 0.846285 0.42537
99 1 0.81003 0.880478 0.441807
38 1 0.78622 0.945304 0.291557
46 1 0.989789 0.893943 0.266444
310 2 0.865698 0.770662 0.476684
273 1 0.937743 0.826413 0.381666
354 2 0.848826 0.826071 0.282821
237 1 0.182898 0.664174 0.59512
322 2 0.0663751 0.631814 0.589414
163 1 0.145089 0.593267 0.727042
64 1 0.0569171 0.723817 0.678642
338 2 0.235381 0.563186 0.524932
172 1 0.128319 0.513046 0.586005
308 2 0.268105 0.649965 0.697559
52 1 0.274156 0.535042 0.644912
10 1 0.341693 0.658406 0.563135
26 1 0.462922 0.5655 0.610351
43 1 0.394162 0.638375 0.728374
207 1 0.58063 0.591244 0.514351
79 1 0.704595 0.611681 0.611621
39 1 0.553745 0.674149 0.701936
305 2 0.596689 0.541425 0.658813
285 1 0.634221 0.749677 0.542014
271 1 0.984315 0.569539 0.671573
181 1 0.972349 0.550788 0.514319
42 1 0.833775 0.679814 0.658824
174 1 0.94966 0.709268 0.568781
306 2 0.936342 0.700673 0.716806
211 1 0.8303 0.514446 0.615429
274 1 0.0731672 0.76834 0.509839
232 1 0.122879 0.876813 0.705683
151 1 0.209157 0.809676 0.584512
330 2 0.0389939 0.839351 0.614334
191 1 0.126402 0.968219 0.580201
33 1 0.329886 0.798236 0.686125
144 1 0.463899 0.763335 0.612591
1 1 0.403239 0.943564 0.551745
152 1 0.275391 0.939602 0.642265
55 1 0.44252 0.917444 0.718791
314 2 0.452885 0.763167 0.738278
182 1 0.358278 0.802649 0.506711
196 1 0.699916 0.751463 0.694871
162 1 0.568128 0.884879 0.583871
259 1 0.716895 0.906004 0.656417
37 1 0.571045 0.833737 0.736058
96 1 0.681254 0.97176 0.512085
3 1 0.584631 0.998076 0.708497
347 2 0.703252 0.853402 0.511127
284 1 0.991974 0.961088 0.671393
121 1 0.778008 0.780895 0.56874
257 1 0.838181 0.980193 0.576132
203 1 0.883591 0.824281 0.681789
179 1 0.96555 0.888208 0.527225
177 1 0.847666 0.97976 0.726027
80 1 0.211163 0.747402 0.759457
304 2 0.219672 0.586753 0.939251
165 1 0.131857 0.660474 0.855592
153 1 0.128691 0.513002 0.872963
89 1 0.278447 0.604742 0.817667
329 2 0.408818 0.551896 0.83317
88 1 0.484383 0.666096 0.853235
228 1 0.356174 0.572451 0.97082
108 1 0.261992 0.703432 0.96415
59 1 0.415334 0.718223 0.973976
54 1 0.68761 0.556551 0.754682
128 1 0.50303 0.514506 0.918211
244 1 0.579567 0.654046 0.984663
17 1 0.525519 0.535392 0.768506
336 2 0.61944 0.567073 0.873232
29 1 0.631851 0.719906 0.83996
84 1 0.736524 0.627974 0.896067
309 2 0.742224 0.659369 0.765911
149 1 0.661683 0.528565 0.984116
353 2 0.7547 0.507029 0.857825
61 1 0.99278 0.615985 0.815324
186 1 0.972177 0.72294 0.944331
11 1 0.849763 0.729394 0.821842
267 1 0.893678 0.588121 0.938819
180 1 0.832498 0.57255 0.767544
239 1 0.0490443 0.871226 0.984201
131 1 0.0271533 0.784211 0.818229
136 1 0.164415 0.800974 0.904187
98 1 0.104047 0.935107 0.855206
248 1 0.187644 0.956783 0.984513
215 1 0.247999 0.891104 0.7925
78 1 0.349396 0.751152 0.832093
2 1 0.392198 0.967458 0.851301
212 1 0.311056 0.860663 0.943496
7 1 0.469843 0.837286 0.86266
27 1 0.73201 0.853026 0.808027
356 2 0.526638 0.950201 0.810087
254 1 0.635726 0.942593 0.921026
56 1 0.576601 0.800622 0.971767
166 1 0.942355 0.990071 0.945062
238 1 0.756769 0.776114 0.936711
266 1 0.91222 0.881532 0.841558
229 1 0.78452 0.956919 0.949629
81 1 0.884168 0.835133 0.989543
ITEM: TIMESTEP
1000000
ITEM: NUMBER OF ATOMS
360
ITEM: BOX BOUNDS pp pp pp
0.0000000000000000e+00 6.6943295008216896e+00
0.0000000000000000e+00 6.6943295008216896e+00
0.0000000000000000e+00 6.6943295008216896e+00
ITEM: ATOMS id type xs ys zs
14 1 0.181366 0.0544877 0.162561
160 1 0.0496631 0.182193 0.210416
106 1 0.112476 0.145261 0.0567158
28 1 0.219604 0.208212 0.22458
327 2 0.131565 0.261789 0.136027
148 1 0.285108 0.133589 0.0564868
134 1 0.425021 0.168033 0.130152
220 1 0.32936 0.09414 0.216841
75 1 0.738857 0.348834 0.00894977
113 1 0.549004 0.0896484 0.0848027
30 1 0.676125 0.135433 0.153049
194 1 0.563818 0.246602 0.120105
140 1 0.342501 0.478954 0.149848
164 1 0.219266 0.00177612 0.30912
175 1 0.953387 0.121368 0.084077
319 2 0.854759 0.107021 0.151935
230 1 0.790285 0.206438 0.04973
127 1 0.806407 0.0550825 0.0244853
248 1 0.777784 0.0384293 0.239736
168 1 0.908769 0.110733 0.26743
156 1 0.520038 0.0133006 0.377956
94 1 0.0685535 0.419165 0.110543
246 1 0.204902 0.366829 0.155756
231 1 0.0851177 0.335656 0.244627
190 1 0.0131775 0.273095 0.0835279
344 2 0.691966 0.488916 0.402493
337 2 0.477404 0.229566 0.219362
178 1 0.295394 0.402446 0.0147671
202 1 0.447631 0.37304 0.139628
72 1 0.326685 0.282852 0.110537
321 2 0.972676 0.404713 0.306457
224 1 0.9451 0.339398 0.438466
82 1 0.552591 0.49907 0.495275
355 2 0.665114 0.241865 0.0367375
225 1 0.587352 0.389057 0.199886
193 1 0.587701 0.367258 0.0261704
53 1 0.722618 0.298797 0.156711
251 1 0.880565 0.227606 0.17763
276 1 0.917624 0.431154 0.0332238
57 1 0.803878 0.452822 0.128389
161 1 0.943706 0.365103 0.182808
358 2 0.831175 0.331809 0.0868471
21 1 0.960989 0.258942 0.313828
122 1 0.0440074 0.0288162 0.243609
351 2 0.0175834 0.1316 0.331353
167 1 0.120882 0.0649457 0.411463
214 1 0.122136 0.221233 0.350732
352 2 0.145112 0.112392 0.283763
48 1 0.256741 0.136404 0.374934
195 1 0.393225 0.0846556 0.352889
87 1 0.364408 0.22712 0.297877
62 1 0.3515 0.22212 0.489073
247 1 0.518563 0.10711 0.241709
218 1 0.498507 0.194759 0.369355
315 2 0.578768 0.133913 0.446628
270 1 0.648073 0.113889 0.331664
24 1 0.687374 0.193187 0.452591
153 1 0.153542 0.30898 0.0179529
210 1 0.00283441 0.193173 0.456986
283 1 0.850447 0.214656 0.416604
105 1 0.777999 0.200725 0.280829
250 1 0.945646 0.0605725 0.403216
192 1 0.798829 0.0789783 0.386046
320 2 0.928991 0.0112433 0.0226455
222 1 0.210143 0.474098 0.294735
157 1 0.089535 0.396917 0.38457
339 2 0.209873 0.321865 0.287727
92 1 0.835546 0.344729 0.304206
286 1 0.710415 0.325493 0.379209
253 1 0.234577 0.310425 0.404646
34 1 0.337343 0.36833 0.252621
348 2 0.358953 0.32393 0.394573
31 1 0.326483 0.456062 0.391332
6 1 0.458688 0.341922 0.471897
360 2 0.460069 0.459298 0.394374
268 1 0.473847 0.330355 0.306425
184 1 0.576694 0.435427 0.353516
76 1 0.813318 0.441238 0.451319
292 2 0.581141 0.296947 0.416976
197 1 0.604807 0.251016 0.279465
199 1 0.725075 0.462996 0.277088
50 1 0.623918 -0.0105019 0.20945
13 1 0.458019 0.494915 0.263297
51 1 0.436118 -0.0108012 0.162433
312 2 0.0362249 0.414547 0.497293
68 1 0.437763 0.297044 -0.00451265
132 1 0.886318 0.509874 0.265333
244 1 0.667302 0.494375 0.0812036
89 1 0.154728 0.481634 -0.00874813
280 1 0.105304 0.302788 0.497998
25 1 0.973538 0.509437 0.417646
107 1 0.0544347 0.489507 0.251744
236 1 0.66237 0.0429962 0.484313
1 1 0.465639 0.105246 0.491689
302 2 0.212983 0.140158 0.650843
86 1 0.0840599 0.0963785 0.672016
317 2 0.0511075 0.197072 0.566536
171 1 0.168699 0.17331 0.511918
211 1 0.839811 0.501344 0.751183
138 1 0.423384 0.153995 0.645645
118 1 0.304617 0.0797683 0.547512
111 1 0.299303 0.239466 0.642203
332 2 0.332708 0.0560097 0.687622
151 1 0.214324 -0.00432559 0.649137
41 1 0.967911 0.31352 0.831612
3 1 0.568597 0.103003 0.602297
90 1 0.684376 0.189962 0.624461
254 1 0.692657 0.0485632 0.694424
260 1 0.565307 0.249604 0.536531
150 1 0.556326 0.253664 0.690446
345 2 0.518409 0.13884 0.730231
61 1 0.79598 0.480188 0.958764
281 1 0.967592 0.189027 0.686491
185 1 0.840739 0.0892103 0.683829
213 1 0.959035 0.090725 0.564095
334 2 0.832833 0.221923 0.665108
115 1 0.806901 0.12767 0.534074
249 1 0.134159 0.254464 0.661753
125 1 0.220785 0.39346 0.67066
63 1 0.0678083 0.387355 0.619529
340 2 0.113547 0.468615 0.712034
349 2 0.00035976 0.317451 0.700533
323 2 0.208879 0.3015 0.571137
32 1 0.144366 0.0375742 0.817256
318 2 0.457766 0.266861 0.600123
162 1 0.32267 0.370016 0.541225
26 1 0.41024 0.314474 0.719966
116 1 0.353436 0.468645 0.683379
336 2 0.475536 0.442179 0.737083
314 2 0.272616 0.488853 0.560779
120 1 0.498729 0.396878 0.608521
299 2 0.669288 0.320274 0.631379
77 1 0.604638 0.404202 0.719166
143 1 0.660703 0.394708 0.871147
65 1 0.748527 0.42214 0.635015
201 1 0.71712 0.293695 0.751524
172 1 0.175104 0.444456 0.49222
71 1 0.955545 0.292912 0.578645
181 1 0.981785 0.447782 0.72832
135 1 0.861345 0.344793 0.70522
102 1 0.895398 0.442156 0.574441
8 1 0.779332 0.303809 0.543124
241 1 0.895021 0.28361 0.979354
91 1 0.538051 0.00649668 0.74981
95 1 0.0953867 0.208114 0.801621
275 1 0.191204 0.172306 0.918614
4 1 0.0326101 0.0578275 0.92545
204 1 0.034781 0.219707 0.944045
341 2 0.463574 0.170336 1.00025
232 1 0.256462 0.123356 0.760166
324 2 0.355472 0.200799 0.756485
221 1 0.410451 0.0863911 0.802428
100 1 0.35124 0.1927 0.905699
9 1 0.481013 0.220586 0.833532
264 1 0.299307 0.0268219 0.880056
329 2 0.268777 0.280903 0.956808
298 2 0.732827 0.159935 0.748366
66 1 0.674621 0.121097 0.98359
183 1 0.530391 0.0820034 0.910355
206 1 0.621402 0.141891 0.797645
73 1 0.734651 0.230136 0.893817
12 1 0.817359 0.359614 0.864144
124 1 0.947806 0.0608986 0.791455
229 1 0.770987 0.0728839 0.855765
346 2 0.973024 0.180353 0.824069
141 1 0.842647 0.210627 0.801283
279 1 0.90132 0.132 0.93358
109 1 0.248818 0.280901 0.78048
146 1 0.107215 0.361421 0.778505
359 2 0.12469 0.305436 0.889616
262 1 0.0308702 0.38441 0.947263
158 1 0.215162 0.395513 0.874946
309 2 0.615404 0.470085 0.601465
328 2 0.7234 0.424946 0.764317
188 1 0.434259 0.466186 0.978654
308 2 0.304445 0.409782 0.7815
256 1 0.357223 0.347682 0.872695
147 1 0.503593 0.365533 0.837781
70 1 0.572913 0.238905 0.94584
326 2 0.608863 0.27985 0.819093
54 1 0.397944 0.490336 0.832058
45 1 0.167351 0.018578 0.978585
271 1 0.92811 0.460842 0.868221
137 1 0.640676 0.373806 0.502323
114 1 0.398743 0.508089 0.522456
155 1 0.408101 0.0455039 1.00044
252 1 0.0858107 0.608197 0.0755836
104 1 0.22011 0.643042 0.0252903
234 1 0.171069 0.738792 0.143857
130 1 0.0215747 0.700502 0.179077
74 1 0.190551 0.524404 0.153156
159 1 0.300388 0.665391 0.171005
139 1 0.454807 0.633073 0.20679
154 1 0.389005 0.598077 0.0556142
117 1 0.407149 0.751849 0.0836127
7 1 0.536543 0.663863 0.0474636
56 1 0.581623 0.716764 0.174438
353 2 0.654643 0.633101 0.115528
22 1 0.595534 0.565642 0.240171
83 1 0.378807 0.688346 0.491818
219 1 0.735551 0.736916 0.132226
238 1 0.806804 0.745329 -0.00547311
126 1 0.753504 0.589476 0.194425
11 1 0.839926 0.608967 0.0676614
209 1 0.963459 0.550665 0.143054
291 2 0.877068 0.637657 0.19243
186 1 0.965287 0.706598 0.0220297
342 2 0.890928 0.840445 0.261056
60 1 0.160351 0.902056 0.201003
108 1 0.203149 0.860621 0.0456996
119 1 0.0527266 0.822894 0.0713469
103 1 0.0482667 0.999083 0.0723784
350 2 0.747887 1.00749 0.126697
290 2 0.275741 0.769749 0.0747719
277 1 0.310212 0.824047 0.196514
343 2 0.386896 0.887326 0.117061
285 1 0.473936 0.82858 0.188134
142 1 0.296736 0.974355 0.0946623
205 1 0.501603 0.913637 0.0373824
306 2 0.530811 0.79048 0.061172
200 1 0.628441 0.860965 0.124514
257 1 0.846242 0.96261 0.489736
145 1 0.517548 0.513441 0.11511
15 1 0.893097 0.977261 0.150139
288 1 0.00562428 0.879262 0.214052
287 1 0.752371 0.879844 0.219813
35 1 0.783707 0.901199 0.0590289
149 1 0.891608 0.798361 0.130011
198 1 0.15262 0.628529 0.258616
169 1 0.115712 0.562551 0.393526
357 2 0.0917421 0.682501 0.376398
235 1 0.23059 0.704647 0.384985
284 1 0.992359 0.907184 0.460705
182 1 0.225955 0.965943 0.471085
163 1 0.259181 0.569679 0.468772
240 1 0.314245 0.582457 0.307322
207 1 0.451479 0.579974 0.395038
67 1 0.36599 0.735624 0.315663
93 1 0.538534 0.734473 0.464438
44 1 0.514101 0.698665 0.325539
5 1 0.688538 0.706469 0.286853
112 1 0.622718 0.600355 0.377222
269 1 0.712094 0.67782 0.460507
85 1 0.976643 0.789117 0.355995
189 1 0.837095 0.726911 0.269516
258 1 -0.00298003 0.652685 0.462897
19 1 0.985557 0.61898 0.300214
46 1 0.859759 0.716625 0.416
216 1 0.777947 0.585026 0.354499
316 2 0.273491 0.531078 0.0579475
296 2 0.238609 0.741553 0.253779
310 2 0.966223 0.775597 0.488109
173 1 0.0939346 0.783231 0.456179
242 1 0.110542 0.774997 0.280959
99 1 0.101417 0.917309 0.355675
295 2 0.218799 0.840952 0.455773
170 1 0.242662 0.853668 0.335845
272 1 0.369447 0.947874 0.289347
243 1 0.384848 0.964554 0.44945
129 1 0.342094 0.828602 0.44834
40 1 0.472395 0.856024 0.359802
325 2 0.514688 0.948805 0.259507
123 1 0.755987 0.822876 0.372439
311 2 0.714458 0.929934 0.501564
297 2 0.645437 0.77258 0.392193
20 1 0.609585 0.843966 0.286316
259 1 0.592144 0.881723 0.449457
36 1 0.687818 0.96584 0.343318
303 2 0.875373 0.847326 0.425522
293 2 0.983543 0.954485 0.324377
38 1 0.862477 0.952003 0.327719
217 1 0.647128 0.976716 0.0270238
16 1 0.182658 0.561831 0.613494
282 1 0.20479 0.694205 0.686388
273 1 0.0730336 0.702511 0.597757
227 1 0.0392525 0.52898 0.553919
174 1 0.0841865 0.606743 0.729112
110 1 0.234686 0.709706 0.543709
322 2 0.134427 0.631826 0.503529
52 1 0.333469 0.611423 0.623324
10 1 0.489585 0.72591 0.61384
233 1 0.494346 0.545498 0.645274
356 2 0.830162 0.822298 0.800622
278 1 0.86211 0.585607 0.504992
128 1 0.686419 0.553343 0.686813
23 1 0.603557 0.630209 0.577914
39 1 0.643679 0.703574 0.742415
223 1 0.709822 0.525627 0.5214
245 1 0.75574 0.659385 0.61084
203 1 0.936654 0.581379 0.665811
179 1 0.899399 0.724384 0.590455
64 1 0.973521 0.734966 0.732878
354 2 0.816498 0.545123 0.620711
79 1 0.83296 0.670112 0.742043
300 2 0.111066 0.797704 0.676692
101 1 0.177967 0.854921 0.574899
136 1 0.0884018 0.918467 0.712506
274 1 0.242121 0.845785 0.721877
191 1 0.0857639 0.980292 0.552528
237 1 0.354781 0.755653 0.689689
338 2 0.347292 0.780094 0.571541
152 1 0.325671 0.899838 0.601864
144 1 0.468149 0.856287 0.545938
196 1 0.493871 0.852624 0.700732
305 2 0.48041 0.619176 0.536278
37 1 0.59168 0.947217 0.605838
96 1 0.658903 0.784068 0.5916
27 1 0.693466 0.851622 0.734728
133 1 0.6389 0.781689 1.00151
98 1 0.00706401 0.844574 0.602291
226 1 0.760358 0.949783 0.614257
177 1 0.832415 0.824603 0.671731
121 1 0.795607 0.815303 0.525568
330 2 0.890987 0.88435 0.577566
97 1 0.92933 0.96378 0.665869
187 1 0.0780049 0.511275 0.846626
80 1 0.191025 0.644514 0.849309
165 1 0.0340396 0.662615 0.866988
301 2 0.11676 0.601307 0.946931
78 1 0.134264 0.745174 0.961283
267 1 0.699487 0.623874 0.983606
289 2 0.418853 0.595227 0.746353
261 1 0.291731 0.550567 0.925554
239 1 0.323806 0.63656 0.796699
228 1 0.433927 0.629944 0.900436
55 1 0.304501 0.732162 0.951904
88 1 0.479244 0.709323 0.767179
2 1 0.582895 0.681281 0.886353
84 1 0.70853 0.55893 0.841443
59 1 0.55208 0.542371 0.792781
17 1 0.591906 0.528533 0.945718
42 1 0.745166 0.716282 0.85949
294 2 0.748769 0.980098 0.939057
180 1 0.858042 0.605857 0.904643
347 2 0.95942 0.566251 0.803672
58 1 0.887597 0.978555 0.899015
43 1 0.223602 0.518759 0.763502
331 2 0.0337483 0.971041 0.820266
304 2 0.244565 0.759824 0.820281
313 2 0.0119372 0.786241 0.920867
81 1 0.0493485 0.903404 0.931069
131 1 0.0975284 0.789125 0.807037
263 1 0.19839 0.892473 0.87122
333 2 0.238009 0.961401 0.776771
33 1 0.360514 0.948318 0.756242
266 1 0.906299 0.748633 0.870077
176 1 0.360227 0.820976 0.841222
212 1 0.459438 0.927986 0.87538
69 1 0.472382 0.786025 0.943088
29 1 0.805957 0.951406 0.776149
335 2 0.589619 0.888822 0.932628
208 1 0.571565 0.820683 0.828224
47 1 0.643547 0.983316 0.853019
307 2 0.503184 0.972894 0.515453
49 1 0.941577 0.877222 0.796673
18 1 0.742433 0.870733 0.892903
255 1 0.996631 0.549748 0.975533
265 1 0.352463 0.881301 0.99045
215 1 0.442078 1.00473 0.628275
166 1 0.927649 0.855386 0.991701
ITEM: TIMESTEP
2000000
ITEM: NUMBER OF ATOMS
360
ITEM: BOX BOUNDS pp pp pp
0.0000000000000000e+00 6.6943295008216896e+00
0.0000000000000000e+00 6.6943295008216896e+00
0.0000000000000000e+00 6.6943295008216896e+00
ITEM: ATOMS id type xs ys zs
220 1 0.18922 0.0886529 0.176409
168 1 0.0485882 0.155697 0.173114
190 1 0.137888 0.162308 0.0364688
277 1 0.000270332 0.0398018 0.085357
311 2 0.0865066 0.00502807 0.179382
339 2 0.247006 0.200028 0.133545
100 1 0.289353 0.100393 0.0656097
231 1 0.34886 0.118059 0.218972
142 1 0.437276 0.03441 0.0646724
51 1 0.408456 0.203747 0.0859678
341 2 0.414302 0.00811714 0.225158
205 1 0.504201 0.120706 0.21744
194 1 0.67501 0.154162 0.154008
212 1 0.580253 0.0291196 0.110527
103 1 0.960244 0.0232469 0.228281
30 1 0.81661 0.0639553 0.175428
343 2 0.920426 0.125696 0.135205
53 1 0.813748 0.221888 0.159838
99 1 0.957598 0.160973 -0.00594301
171 1 0.193961 0.0109144 0.412694
192 1 0.926275 -0.00631228 0.381834
87 1 0.374541 0.219074 0.486628
262 1 0.039372 0.294767 0.0261044
214 1 0.144212 0.283034 0.144207
276 1 0.110015 0.434284 0.100616
25 1 0.0121299 0.453966 0.223178
358 2 0.463608 0.256134 0.201063
72 1 0.270563 0.411211 0.118457
160 1 0.271301 0.282801 0.0369764
261 1 0.33513 0.271685 0.194157
202 1 0.418549 0.362449 0.104455
316 2 0.390222 0.476776 0.155208
225 1 0.51841 0.487867 0.161108
113 1 0.55367 0.226625 0.112428
126 1 0.681574 0.450864 0.151557
75 1 0.71662 0.309158 0.0808709
193 1 0.564769 0.383847 0.054416
244 1 0.571068 0.353047 0.217539
105 1 0.719246 0.321472 0.249302
251 1 0.965557 0.298307 0.186807
57 1 0.839865 0.399535 0.184019
241 1 0.87739 0.29183 0.0532843
11 1 0.953924 0.442246 0.0745801
347 2 0.818422 0.424296 0.0493177
287 1 0.676291 0.017517 0.2439
280 1 0.210272 0.20492 0.259423
191 1 0.0856004 0.062733 0.30065
48 1 0.159573 0.170075 0.400032
352 2 0.226318 0.075246 0.304096
323 2 0.244794 0.238321 0.444305
115 1 0.0115256 0.145913 0.396783
344 2 0.826348 0.275563 0.493208
310 2 0.0720548 0.032525 0.418458
21 1 0.87317 0.303193 0.305908
111 1 0.309751 0.142051 0.374915
151 1 0.473316 0.0909681 0.372075
222 1 0.367266 0.0296641 0.484551
195 1 0.443123 0.242853 0.329013
309 2 0.764136 0.428429 0.333729
197 1 0.602591 0.215676 0.295564
318 2 0.59648 0.0886579 0.321912
218 1 0.651513 0.143863 0.425624
248 1 0.522253 0.212525 0.451066
122 1 0.842901 0.0649871 0.0291059
15 1 0.746431 0.143562 0.288437
278 1 0.839052 0.396168 0.444632
71 1 0.941981 0.272179 0.454323
265 1 0.908862 0.159033 0.270131
283 1 0.833865 0.160485 0.412259
325 2 0.847609 0.0520218 0.301064
157 1 0.892458 0.47075 0.307891
308 2 0.0564629 0.471301 0.447967
213 1 0.00580327 0.391742 0.37129
107 1 0.206478 0.454667 0.403754
161 1 0.0564323 0.262471 0.305897
94 1 0.148579 0.3842 0.279827
224 1 0.142399 0.319801 0.4366
140 1 0.288718 0.462488 0.264716
31 1 0.356496 0.482998 0.412046
247 1 0.424464 0.380646 0.274463
34 1 0.285691 0.326153 0.348918
62 1 0.43134 0.351071 0.457534
286 1 0.741983 0.275877 0.393446
6 1 0.515638 0.472874 0.38498
184 1 0.690474 0.434023 0.456989
268 1 0.588958 0.336543 0.380154
92 1 0.649851 0.469475 0.29591
185 1 0.768722 0.0265165 0.402164
326 2 0.493501 0.286181 0.00563759
106 1 0.15279 0.00177462 0.0499666
292 2 0.642138 0.266023 0.470258
333 2 0.0618198 0.234173 0.480108
319 2 0.883072 0.0631544 0.472956
95 1 0.0494375 0.184976 0.69308
204 1 0.175037 0.0941372 0.666689
136 1 0.0886377 0.116618 0.537695
118 1 0.249388 0.129648 0.526188
37 1 0.539478 0.0671618 0.517406
138 1 0.303579 0.205205 0.656903
1 1 0.408834 0.11706 0.612447
302 2 0.327867 0.0342155 0.637006
355 2 0.436968 0.211617 0.706929
230 1 0.780756 0.193953 0.985749
206 1 0.539509 0.12893 0.696209
260 1 0.620173 0.192544 0.587265
24 1 0.687506 0.0776283 0.69246
36 1 0.698333 0.00898363 0.547304
90 1 0.755659 0.220935 0.687258
270 1 0.768979 0.172972 0.547636
98 1 0.929335 0.138075 0.569177
236 1 0.837189 0.0425915 0.633584
97 1 0.902348 0.166742 0.713631
334 2 0.0129554 0.284709 0.621902
33 1 0.437927 -0.00634956 0.754388
253 1 0.159774 0.251698 0.583765
86 1 0.0845176 0.373071 0.676725
249 1 0.149148 0.435224 0.552943
63 1 0.982096 0.397995 0.532441
41 1 0.944135 0.291942 0.900548
26 1 0.243147 0.35159 0.679529
116 1 0.392764 0.313734 0.617543
52 1 0.351841 0.48056 0.635797
135 1 0.884166 0.435418 0.818864
315 2 0.496435 0.243896 0.57256
314 2 0.473192 0.408926 0.651228
150 1 0.528596 0.30465 0.698545
120 1 0.572854 0.341148 0.545478
299 2 0.660465 0.304507 0.656952
77 1 0.624594 0.428156 0.677174
137 1 0.731982 0.332013 0.553003
65 1 0.772338 0.376206 0.708453
76 1 0.872486 0.289765 0.611893
181 1 0.919691 0.446475 0.672443
223 1 0.782917 0.489436 0.585678
8 1 0.95669 0.311777 0.747214
346 2 0.886343 0.401681 0.937187
359 2 0.111709 0.115063 0.781893
279 1 0.153164 0.0623083 0.887304
146 1 0.0786011 0.190855 0.883213
281 1 0.014757 0.0591177 0.827105
153 1 0.255585 0.168933 0.918142
221 1 0.192784 0.215303 0.768286
351 2 0.0527104 0.0818501 0.974836
141 1 0.827711 0.270592 0.804123
275 1 0.28213 0.0685787 0.763766
337 2 0.381011 0.133304 0.974733
183 1 0.402324 0.109019 0.852463
324 2 0.315657 0.191449 0.793922
345 2 0.634522 0.197524 0.722593
114 1 0.494806 0.476031 0.53131
47 1 0.530505 0.221104 0.823593
3 1 0.583399 0.0758373 0.832924
66 1 0.704442 0.18047 0.824979
35 1 0.740991 0.042114 0.865586
349 2 0.972309 0.187646 0.815245
298 2 0.808256 0.0979195 0.762858
229 1 0.876078 0.132611 0.876781
158 1 0.152552 0.401097 0.958644
317 2 0.163849 0.267511 0.964075
227 1 0.0403564 0.476212 0.775783
165 1 1.01361 0.452111 0.928226
109 1 0.0927669 0.336546 0.837121
336 2 0.175804 0.413879 0.776907
54 1 0.446936 0.444034 0.767268
68 1 0.388879 0.254854 0.935524
9 1 0.254271 0.327247 0.865364
256 1 0.360017 0.394538 0.968098
70 1 0.389124 0.304559 0.784249
43 1 0.300204 0.456829 0.781992
301 2 0.272847 0.452176 0.901051
328 2 0.59245 0.442605 0.795484
211 1 0.708559 0.471976 0.824368
73 1 0.61439 0.264146 0.959199
201 1 0.651414 0.32405 0.809139