ITEM: TIMESTEP
0
ITEM: NUMBER OF ATOMS
4000
ITEM: BOX BOUNDS pp pp pp
0.0000000000000000e+00 1.6795961913825074e+01
0.0000000000000000e+00 1.6795961913825074e+01
0.0000000000000000e+00 1.6795961913825074e+01
ITEM: ATOMS id type xs ys zs
1 1 0 0 0
2 1 0.05 0.05 0
3 1 0.05 0 0.05
4 1 0 0.05 0.05
401 1 0 0 0.1
402 1 0.05 0.05 0.1
5 1 0.1 0 0
6 1 0.15 0.05 0
7 1 0.15 0 0.05
8 1 0.1 0.05 0.05
405 1 0.1 0 0.1
406 1 0.15 0.05 0.1
9 1 0.2 0 0
10 1 0.25 0.05 0
11 1 0.25 0 0.05
12 1 0.2 0.05 0.05
409 1 0.2 0 0.1
410 1 0.25 0.05 0.1
13 1 0.3 0 0
14 1 0.35 0.05 0
15 1 0.35 0 0.05
16 1 0.3 0.05 0.05
413 1 0.3 0 0.1
414 1 0.35 0.05 0.1
17 1 0.4 0 0
18 1 0.45 0.05 0
19 1 0.45 0 0.05
20 1 0.4 0.05 0.05
417 1 0.4 0 0.1
418 1 0.45 0.05 0.1
21 1 0.5 0 0
24 1 0.5 0.05 0.05
421 1 0.5 0 0.1
22 1 0.55 0.05 0
23 1 0.55 0 0.05
25 1 0.6 0 0
28 1 0.6 0.05 0.05
422 1 0.55 0.05 0.1
425 1 0.6 0 0.1
26 1 0.65 0.05 0
27 1 0.65 0 0.05
29 1 0.7 0 0
32 1 0.7 0.05 0.05
426 1 0.65 0.05 0.1
429 1 0.7 0 0.1
30 1 0.75 0.05 0
31 1 0.75 0 0.05
33 1 0.8 0 0
36 1 0.8 0.05 0.05
430 1 0.75 0.05 0.1
433 1 0.8 0 0.1
34 1 0.85 0.05 0
35 1 0.85 0 0.05
37 1 0.9 0 0
40 1 0.9 0.05 0.05
434 1 0.85 0.05 0.1
437 1 0.9 0 0.1
38 1 0.95 0.05 0
39 1 0.95 0 0.05
438 1 0.95 0.05 0.1
41 1 0 0.1 0
42 1 0.05 0.15 0
43 1 0.05 0.1 0.05
44 1 0 0.15 0.05
441 1 0 0.1 0.1
442 1 0.05 0.15 0.1
45 1 0.1 0.1 0
46 1 0.15 0.15 0
47 1 0.15 0.1 0.05
48 1 0.1 0.15 0.05
445 1 0.1 0.1 0.1
446 1 0.15 0.15 0.1
49 1 0.2 0.1 0
50 1 0.25 0.15 0
51 1 0.25 0.1 0.05
52 1 0.2 0.15 0.05
449 1 0.2 0.1 0.1
450 1 0.25 0.15 0.1
53 1 0.3 0.1 0
54 1 0.35 0.15 0
55 1 0.35 0.1 0.05
56 1 0.3 0.15 0.05
453 1 0.3 0.1 0.1
454 1 0.35 0.15 0.1
57 1 0.4 0.1 0
58 1 0.45 0.15 0
59 1 0.45 0.1 0.05
60 1 0.4 0.15 0.05
457 1 0.4 0.1 0.1
458 1 0.45 0.15 0.1
61 1 0.5 0.1 0
64 1 0.5 0.15 0.05
461 1 0.5 0.1 0.1
62 1 0.55 0.15 0
63 1 0.55 0.1 0.05
65 1 0.6 0.1 0
68 1 0.6 0.15 0.05
462 1 0.55 0.15 0.1
465 1 0.6 0.1 0.1
66 1 0.65 0.15 0
67 1 0.65 0.1 0.05
69 1 0.7 0.1 0
72 1 0.7 0.15 0.05
466 1 0.65 0.15 0.1
469 1 0.7 0.1 0.1
70 1 0.75 0.15 0
71 1 0.75 0.1 0.05
73 1 0.8 0.1 0
76 1 0.8 0.15 0.05
470 1 0.75 0.15 0.1
473 1 0.8 0.1 0.1
74 1 0.85 0.15 0
75 1 0.85 0.1 0.05
77 1 0.9 0.1 0
80 1 0.9 0.15 0.05
474 1 0.85 0.15 0.1
477 1 0.9 0.1 0.1
78 1 0.95 0.15 0
79 1 0.95 0.1 0.05
478 1 0.95 0.15 0.1
81 1 0 0.2 0
82 1 0.05 0.25 0
83 1 0.05 0.2 0.05
84 1 0 0.25 0.05
481 1 0 0.2 0.1
482 1 0.05 0.25 0.1
85 1 0.1 0.2 0
86 1 0.15 0.25 0
87 1 0.15 0.2 0.05
88 1 0.1 0.25 0.05
485 1 0.1 0.2 0.1
486 1 0.15 0.25 0.1
89 1 0.2 0.2 0
90 1 0.25 0.25 0
91 1 0.25 0.2 0.05
92 1 0.2 0.25 0.05
489 1 0.2 0.2 0.1
490 1 0.25 0.25 0.1
93 1 0.3 0.2 0
94 1 0.35 0.25 0
95 1 0.35 0.2 0.05
96 1 0.3 0.25 0.05
493 1 0.3 0.2 0.1
494 1 0.35 0.25 0.1
97 1 0.4 0.2 0
98 1 0.45 0.25 0
99 1 0.45 0.2 0.05
100 1 0.4 0.25 0.05
497 1 0.4 0.2 0.1
498 1 0.45 0.25 0.1
101 1 0.5 0.2 0
104 1 0.5 0.25 0.05
501 1 0.5 0.2 0.1
102 1 0.55 0.25 0
103 1 0.55 0.2 0.05
105 1 0.6 0.2 0
108 1 0.6 0.25 0.05
502 1 0.55 0.25 0.1
505 1 0.6 0.2 0.1
106 1 0.65 0.25 0
107 1 0.65 0.2 0.05
109 1 0.7 0.2 0
112 1 0.7 0.25 0.05
506 1 0.65 0.25 0.1
509 1 0.7 0.2 0.1
110 1 0.75 0.25 0
111 1 0.75 0.2 0.05
113 1 0.8 0.2 0
116 1 0.8 0.25 0.05
510 1 0.75 0.25 0.1
513 1 0.8 0.2 0.1
114 1 0.85 0.25 0
115 1 0.85 0.2 0.05
117 1 0.9 0.2 0
120 1 0.9 0.25 0.05
514 1 0.85 0.25 0.1
517 1 0.9 0.2 0.1
118 1 0.95 0.25 0
119 1 0.95 0.2 0.05
518 1 0.95 0.25 0.1
121 1 0 0.3 0
122 1 0.05 0.35 0
123 1 0.05 0.3 0.05
124 1 0 0.35 0.05
521 1 0 0.3 0.1
522 1 0.05 0.35 0.1
125 1 0.1 0.3 0
126 1 0.15 0.35 0
127 1 0.15 0.3 0.05
128 1 0.1 0.35 0.05
525 1 0.1 0.3 0.1
526 1 0.15 0.35 0.1
129 1 0.2 0.3 0
130 1 0.25 0.35 0
131 1 0.25 0.3 0.05
132 1 0.2 0.35 0.05
529 1 0.2 0.3 0.1
530 1 0.25 0.35 0.1
133 1 0.3 0.3 0
134 1 0.35 0.35 0
135 1 0.35 0.3 0.05
136 1 0.3 0.35 0.05
533 1 0.3 0.3 0.1
534 1 0.35 0.35 0.1
137 1 0.4 0.3 0
138 1 0.45 0.35 0
139 1 0.45 0.3 0.05
140 1 0.4 0.35 0.05
537 1 0.4 0.3 0.1
538 1 0.45 0.35 0.1
141 1 0.5 0.3 0
144 1 0.5 0.35 0.05
541 1 0.5 0.3 0.1
142 1 0.55 0.35 0
143 1 0.55 0.3 0.05
145 1 0.6 0.3 0
148 1 0.6 0.35 0.05
542 1 0.55 0.35 0.1
545 1 0.6 0.3 0.1
146 1 0.65 0.35 0
147 1 0.65 0.3 0.05
149 1 0.7 0.3 0
152 1 0.7 0.35 0.05
546 1 0.65 0.35 0.1
549 1 0.7 0.3 0.1
150 1 0.75 0.35 0
151 1 0.75 0.3 0.05
153 1 0.8 0.3 0
156 1 0.8 0.35 0.05
550 1 0.75 0.35 0.1
553 1 0.8 0.3 0.1
154 1 0.85 0.35 0
155 1 0.85 0.3 0.05
157 1 0.9 0.3 0
160 1 0.9 0.35 0.05
554 1 0.85 0.35 0.1
557 1 0.9 0.3 0.1
158 1 0.95 0.35 0
159 1 0.95 0.3 0.05
558 1 0.95 0.35 0.1
161 1 0 0.4 0
162 1 0.05 0.45 0
163 1 0.05 0.4 0.05
164 1 0 0.45 0.05
561 1 0 0.4 0.1
562 1 0.05 0.45 0.1
165 1 0.1 0.4 0
166 1 0.15 0.45 0
167 1 0.15 0.4 0.05
168 1 0.1 0.45 0.05
565 1 0.1 0.4 0.1
566 1 0.15 0.45 0.1
169 1 0.2 0.4 0
170 1 0.25 0.45 0
171 1 0.25 0.4 0.05
172 1 0.2 0.45 0.05
569 1 0.2 0.4 0.1
570 1 0.25 0.45 0.1
173 1 0.3 0.4 0
174 1 0.35 0.45 0
175 1 0.35 0.4 0.05
176 1 0.3 0.45 0.05
573 1 0.3 0.4 0.1
574 1 0.35 0.45 0.1
177 1 0.4 0.4 0
178 1 0.45 0.45 0
179 1 0.45 0.4 0.05
180 1 0.4 0.45 0.05
577 1 0.4 0.4 0.1
578 1 0.45 0.45 0.1
181 1 0.5 0.4 0
184 1 0.5 0.45 0.05
581 1 0.5 0.4 0.1
182 1 0.55 0.45 0
183 1 0.55 0.4 0.05
185 1 0.6 0.4 0
188 1 0.6 0.45 0.05
582 1 0.55 0.45 0.1
585 1 0.6 0.4 0.1
186 1 0.65 0.45 0
187 1 0.65 0.4 0.05
189 1 0.7 0.4 0
192 1 0.7 0.45 0.05
586 1 0.65 0.45 0.1
589 1 0.7 0.4 0.1
190 1 0.75 0.45 0
191 1 0.75 0.4 0.05
193 1 0.8 0.4 0
196 1 0.8 0.45 0.05
590 1 0.75 0.45 0.1
593 1 0.8 0.4 0.1
194 1 0.85 0.45 0
195 1 0.85 0.4 0.05
197 1 0.9 0.4 0
200 1 0.9 0.45 0.05
594 1 0.85 0.45 0.1
597 1 0.9 0.4 0.1
198 1 0.95 0.45 0
199 1 0.95 0.4 0.05
598 1 0.95 0.45 0.1
201 1 0 0.5 0
203 1 0.05 0.5 0.05
601 1 0 0.5 0.1
205 1 0.1 0.5 0
207 1 0.15 0.5 0.05
605 1 0.1 0.5 0.1
209 1 0.2 0.5 0
211 1 0.25 0.5 0.05
609 1 0.2 0.5 0.1
213 1 0.3 0.5 0
215 1 0.35 0.5 0.05
613 1 0.3 0.5 0.1
217 1 0.4 0.5 0
219 1 0.45 0.5 0.05
617 1 0.4 0.5 0.1
221 1 0.5 0.5 0
621 1 0.5 0.5 0.1
223 1 0.55 0.5 0.05
225 1 0.6 0.5 0
625 1 0.6 0.5 0.1
227 1 0.65 0.5 0.05
229 1 0.7 0.5 0
629 1 0.7 0.5 0.1
231 1 0.75 0.5 0.05
233 1 0.8 0.5 0
633 1 0.8 0.5 0.1
235 1 0.85 0.5 0.05
237 1 0.9 0.5 0
637 1 0.9 0.5 0.1
239 1 0.95 0.5 0.05
202 1 0.05 0.55 0
204 1 0 0.55 0.05
241 1 0 0.6 0
243 1 0.05 0.6 0.05
602 1 0.05 0.55 0.1
641 1 0 0.6 0.1
206 1 0.15 0.55 0
208 1 0.1 0.55 0.05
245 1 0.1 0.6 0
247 1 0.15 0.6 0.05
606 1 0.15 0.55 0.1
645 1 0.1 0.6 0.1
210 1 0.25 0.55 0
212 1 0.2 0.55 0.05
249 1 0.2 0.6 0
251 1 0.25 0.6 0.05
610 1 0.25 0.55 0.1
649 1 0.2 0.6 0.1
214 1 0.35 0.55 0
216 1 0.3 0.55 0.05
253 1 0.3 0.6 0
255 1 0.35 0.6 0.05
614 1 0.35 0.55 0.1
653 1 0.3 0.6 0.1
218 1 0.45 0.55 0
220 1 0.4 0.55 0.05
257 1 0.4 0.6 0
259 1 0.45 0.6 0.05
618 1 0.45 0.55 0.1
657 1 0.4 0.6 0.1
224 1 0.5 0.55 0.05
261 1 0.5 0.6 0
661 1 0.5 0.6 0.1
222 1 0.55 0.55 0
228 1 0.6 0.55 0.05
263 1 0.55 0.6 0.05
265 1 0.6 0.6 0
622 1 0.55 0.55 0.1
665 1 0.6 0.6 0.1
226 1 0.65 0.55 0
232 1 0.7 0.55 0.05
267 1 0.65 0.6 0.05
269 1 0.7 0.6 0
626 1 0.65 0.55 0.1
669 1 0.7 0.6 0.1
230 1 0.75 0.55 0
236 1 0.8 0.55 0.05
271 1 0.75 0.6 0.05
273 1 0.8 0.6 0
630 1 0.75 0.55 0.1
673 1 0.8 0.6 0.1
234 1 0.85 0.55 0
240 1 0.9 0.55 0.05
275 1 0.85 0.6 0.05
277 1 0.9 0.6 0
634 1 0.85 0.55 0.1
677 1 0.9 0.6 0.1
238 1 0.95 0.55 0
279 1 0.95 0.6 0.05
638 1 0.95 0.55 0.1
242 1 0.05 0.65 0
244 1 0 0.65 0.05
281 1 0 0.7 0
283 1 0.05 0.7 0.05
642 1 0.05 0.65 0.1
681 1 0 0.7 0.1
246 1 0.15 0.65 0
248 1 0.1 0.65 0.05
285 1 0.1 0.7 0
287 1 0.15 0.7 0.05
646 1 0.15 0.65 0.1
685 1 0.1 0.7 0.1
250 1 0.25 0.65 0
252 1 0.2 0.65 0.05
289 1 0.2 0.7 0
291 1 0.25 0.7 0.05
650 1 0.25 0.65 0.1
689 1 0.2 0.7 0.1
254 1 0.35 0.65 0
256 1 0.3 0.65 0.05
293 1 0.3 0.7 0
295 1 0.35 0.7 0.05
654 1 0.35 0.65 0.1
693 1 0.3 0.7 0.1
258 1 0.45 0.65 0
260 1 0.4 0.65 0.05
297 1 0.4 0.7 0
299 1 0.45 0.7 0.05
658 1 0.45 0.65 0.1
697 1 0.4 0.7 0.1
264 1 0.5 0.65 0.05
301 1 0.5 0.7 0
701 1 0.5 0.7 0.1
262 1 0.55 0.65 0
268 1 0.6 0.65 0.05
303 1 0.55 0.7 0.05
305 1 0.6 0.7 0
662 1 0.55 0.65 0.1
705 1 0.6 0.7 0.1
266 1 0.65 0.65 0
272 1 0.7 0.65 0.05
307 1 0.65 0.7 0.05
309 1 0.7 0.7 0
666 1 0.65 0.65 0.1
709 1 0.7 0.7 0.1
270 1 0.75 0.65 0
276 1 0.8 0.65 0.05
311 1 0.75 0.7 0.05
313 1 0.8 0.7 0
670 1 0.75 0.65 0.1
713 1 0.8 0.7 0.1
274 1 0.85 0.65 0
280 1 0.9 0.65 0.05
315 1 0.85 0.7 0.05
317 1 0.9 0.7 0
674 1 0.85 0.65 0.1
717 1 0.9 0.7 0.1
278 1 0.95 0.65 0
319 1 0.95 0.7 0.05
678 1 0.95 0.65 0.1
282 1 0.05 0.75 0
284 1 0 0.75 0.05
321 1 0 0.8 0
323 1 0.05 0.8 0.05
682 1 0.05 0.75 0.1
721 1 0 0.8 0.1
286 1 0.15 0.75 0
288 1 0.1 0.75 0.05
325 1 0.1 0.8 0
327 1 0.15 0.8 0.05
686 1 0.15 0.75 0.1
725 1 0.1 0.8 0.1
290 1 0.25 0.75 0
292 1 0.2 0.75 0.05
329 1 0.2 0.8 0
331 1 0.25 0.8 0.05
690 1 0.25 0.75 0.1
729 1 0.2 0.8 0.1
294 1 0.35 0.75 0
296 1 0.3 0.75 0.05
333 1 0.3 0.8 0
335 1 0.35 0.8 0.05
694 1 0.35 0.75 0.1
733 1 0.3 0.8 0.1
298 1 0.45 0.75 0
300 1 0.4 0.75 0.05
337 1 0.4 0.8 0
339 1 0.45 0.8 0.05
698 1 0.45 0.75 0.1
737 1 0.4 0.8 0.1
304 1 0.5 0.75 0.05
341 1 0.5 0.8 0
741 1 0.5 0.8 0.1
302 1 0.55 0.75 0
308 1 0.6 0.75 0.05
343 1 0.55 0.8 0.05
345 1 0.6 0.8 0
702 1 0.55 0.75 0.1
745 1 0.6 0.8 0.1
306 1 0.65 0.75 0
312 1 0.7 0.75 0.05
347 1 0.65 0.8 0.05
349 1 0.7 0.8 0
706 1 0.65 0.75 0.1
749 1 0.7 0.8 0.1
310 1 0.75 0.75 0
316 1 0.8 0.75 0.05
351 1 0.75 0.8 0.05
353 1 0.8 0.8 0
710 1 0.75 0.75 0.1
753 1 0.8 0.8 0.1
314 1 0.85 0.75 0
320 1 0.9 0.75 0.05
355 1 0.85 0.8 0.05
357 1 0.9 0.8 0
714 1 0.85 0.75 0.1
757 1 0.9 0.8 0.1
318 1 0.95 0.75 0
359 1 0.95 0.8 0.05
718 1 0.95 0.75 0.1
322 1 0.05 0.85 0
324 1 0 0.85 0.05
361 1 0 0.9 0
363 1 0.05 0.9 0.05
722 1 0.05 0.85 0.1
761 1 0 0.9 0.1
326 1 0.15 0.85 0
328 1 0.1 0.85 0.05
365 1 0.1 0.9 0
367 1 0.15 0.9 0.05
726 1 0.15 0.85 0.1
765 1 0.1 0.9 0.1
330 1 0.25 0.85 0
332 1 0.2 0.85 0.05
369 1 0.2 0.9 0
371 1 0.25 0.9 0.05
730 1 0.25 0.85 0.1
769 1 0.2 0.9 0.1
334 1 0.35 0.85 0
336 1 0.3 0.85 0.05
373 1 0.3 0.9 0
375 1 0.35 0.9 0.05
734 1 0.35 0.85 0.1
773 1 0.3 0.9 0.1
338 1 0.45 0.85 0
340 1 0.4 0.85 0.05
377 1 0.4 0.9 0
379 1 0.45 0.9 0.05
738 1 0.45 0.85 0.1
777 1 0.4 0.9 0.1
344 1 0.5 0.85 0.05
381 1 0.5 0.9 0
781 1 0.5 0.9 0.1
342 1 0.55 0.85 0
348 1 0.6 0.85 0.05
383 1 0.55 0.9 0.05
385 1 0.6 0.9 0
742 1 0.55 0.85 0.1
785 1 0.6 0.9 0.1
346 1 0.65 0.85 0
352 1 0.7 0.85 0.05
387 1 0.65 0.9 0.05
389 1 0.7 0.9 0
746 1 0.65 0.85 0.1
789 1 0.7 0.9 0.1
350 1 0.75 0.85 0
356 1 0.8 0.85 0.05
391 1 0.75 0.9 0.05
393 1 0.8 0.9 0
750 1 0.75 0.85 0.1
793 1 0.8 0.9 0.1
354 1 0.85 0.85 0
360 1 0.9 0.85 0.05
395 1 0.85 0.9 0.05
397 1 0.9 0.9 0
754 1 0.85 0.85 0.1
797 1 0.9 0.9 0.1
358 1 0.95 0.85 0
399 1 0.95 0.9 0.05
758 1 0.95 0.85 0.1
362 1 0.05 0.95 0
364 1 0 0.95 0.05
762 1 0.05 0.95 0.1
366 1 0.15 0.95 0
368 1 0.1 0.95 0.05
766 1 0.15 0.95 0.1
370 1 0.25 0.95 0
372 1 0.2 0.95 0.05
770 1 0.25 0.95 0.1
374 1 0.35 0.95 0
376 1 0.3 0.95 0.05
774 1 0.35 0.95 0.1
378 1 0.45 0.95 0
380 1 0.4 0.95 0.05
778 1 0.45 0.95 0.1
384 1 0.5 0.95 0.05
382 1 0.55 0.95 0
388 1 0.6 0.95 0.05
782 1 0.55 0.95 0.1
386 1 0.65 0.95 0
392 1 0.7 0.95 0.05
786 1 0.65 0.95 0.1
390 1 0.75 0.95 0
396 1 0.8 0.95 0.05
790 1 0.75 0.95 0.1
394 1 0.85 0.95 0
400 1 0.9 0.95 0.05
794 1 0.85 0.95 0.1
398 1 0.95 0.95 0
798 1 0.95 0.95 0.1
403 1 0.05 0 0.15
404 1 0 0.05 0.15
801 1 0 0 0.2
802 1 0.05 0.05 0.2
407 1 0.15 0 0.15
408 1 0.1 0.05 0.15
805 1 0.1 0 0.2
806 1 0.15 0.05 0.2
411 1 0.25 0 0.15
412 1 0.2 0.05 0.15
809 1 0.2 0 0.2
810 1 0.25 0.05 0.2
415 1 0.35 0 0.15
416 1 0.3 0.05 0.15
813 1 0.3 0 0.2
814 1 0.35 0.05 0.2
419 1 0.45 0 0.15
420 1 0.4 0.05 0.15
817 1 0.4 0 0.2
818 1 0.45 0.05 0.2
424 1 0.5 0.05 0.15
821 1 0.5 0 0.2
423 1 0.55 0 0.15
428 1 0.6 0.05 0.15
822 1 0.55 0.05 0.2
825 1 0.6 0 0.2
427 1 0.65 0 0.15
432 1 0.7 0.05 0.15
826 1 0.65 0.05 0.2
829 1 0.7 0 0.2
431 1 0.75 0 0.15
436 1 0.8 0.05 0.15
830 1 0.75 0.05 0.2
833 1 0.8 0 0.2
435 1 0.85 0 0.15
440 1 0.9 0.05 0.15
834 1 0.85 0.05 0.2
837 1 0.9 0 0.2
439 1 0.95 0 0.15
838 1 0.95 0.05 0.2
443 1 0.05 0.1 0.15
444 1 0 0.15 0.15
841 1 0 0.1 0.2
842 1 0.05 0.15 0.2
447 1 0.15 0.1 0.15
448 1 0.1 0.15 0.15
845 1 0.1 0.1 0.2
846 1 0.15 0.15 0.2
451 1 0.25 0.1 0.15
452 1 0.2 0.15 0.15
849 1 0.2 0.1 0.2
850 1 0.25 0.15 0.2
455 1 0.35 0.1 0.15
456 1 0.3 0.15 0.15
853 1 0.3 0.1 0.2
854 1 0.35 0.15 0.2
459 1 0.45 0.1 0.15
460 1 0.4 0.15 0.15
857 1 0.4 0.1 0.2
858 1 0.45 0.15 0.2
464 1 0.5 0.15 0.15
861 1 0.5 0.1 0.2
463 1 0.55 0.1 0.15
468 1 0.6 0.15 0.15
862 1 0.55 0.15 0.2
865 1 0.6 0.1 0.2
467 1 0.65 0.1 0.15
472 1 0.7 0.15 0.15
866 1 0.65 0.15 0.2
869 1 0.7 0.1 0.2
471 1 0.75 0.1 0.15
476 1 0.8 0.15 0.15
870 1 0.75 0.15 0.2
873 1 0.8 0.1 0.2
475 1 0.85 0.1 0.15
480 1 0.9 0.15 0.15
874 1 0.85 0.15 0.2
877 1 0.9 0.1 0.2
479 1 0.95 0.1 0.15
878 1 0.95 0.15 0.2
483 1 0.05 0.2 0.15
484 1 0 0.25 0.15
881 1 0 0.2 0.2
882 1 0.05 0.25 0.2
487 1 0.15 0.2 0.15
488 1 0.1 0.25 0.15
885 1 0.1 0.2 0.2
886 1 0.15 0.25 0.2
491 1 0.25 0.2 0.15
492 1 0.2 0.25 0.15
889 1 0.2 0.2 0.2
890 1 0.25 0.25 0.2
495 1 0.35 0.2 0.15
496 1 0.3 0.25 0.15
893 1 0.3 0.2 0.2
894 1 0.35 0.25 0.2
499 1 0.45 0.2 0.15
500 1 0.4 0.25 0.15
897 1 0.4 0.2 0.2
898 1 0.45 0.25 0.2
504 1 0.5 0.25 0.15
901 1 0.5 0.2 0.2
503 1 0.55 0.2 0.15
508 1 0.6 0.25 0.15
902 1 0.55 0.25 0.2
905 1 0.6 0.2 0.2
507 1 0.65 0.2 0.15
512 1 0.7 0.25 0.15
906 1 0.65 0.25 0.2
909 1 0.7 0.2 0.2
511 1 0.75 0.2 0.15
516 1 0.8 0.25 0.15
910 1 0.75 0.25 0.2
913 1 0.8 0.2 0.2
515 1 0.85 0.2 0.15
520 1 0.9 0.25 0.15
914 1 0.85 0.25 0.2
917 1 0.9 0.2 0.2
519 1 0.95 0.2 0.15
918 1 0.95 0.25 0.2
523 1 0.05 0.3 0.15
524 1 0 0.35 0.15
921 1 0 0.3 0.2
922 1 0.05 0.35 0.2
527 1 0.15 0.3 0.15
528 1 0.1 0.35 0.15
925 1 0.1 0.3 0.2
926 1 0.15 0.35 0.2
531 1 0.25 0.3 0.15
532 1 0.2 0.35 0.15
929 1 0.2 0.3 0.2
930 1 0.25 0.35 0.2
535 1 0.35 0.3 0.15
536 1 0.3 0.35 0.15
933 1 0.3 0.3 0.2
934 1 0.35 0.35 0.2
539 1 0.45 0.3 0.15
540 1 0.4 0.35 0.15
937 1 0.4 0.3 0.2
938 1 0.45 0.35 0.2
544 1 0.5 0.35 0.15
941 1 0.5 0.3 0.2
543 1 0.55 0.3 0.15
548 1 0.6 0.35 0.15
942 1 0.55 0.35 0.2
945 1 0.6 0.3 0.2
547 1 0.65 0.3 0.15
552 1 0.7 0.35 0.15
946 1 0.65 0.35 0.2
949 1 0.7 0.3 0.2
551 1 0.75 0.3 0.15
556 1 0.8 0.35 0.15
950 1 0.75 0.35 0.2
953 1 0.8 0.3 0.2
555 1 0.85 0.3 0.15
560 1 0.9 0.35 0.15
954 1 0.85 0.35 0.2
957 1 0.9 0.3 0.2
559 1 0.95 0.3 0.15
958 1 0.95 0.35 0.2
563 1 0.05 0.4 0.15
564 1 0 0.45 0.15
961 1 0 0.4 0.2
962 1 0.05 0.45 0.2
567 1 0.15 0.4 0.15
568 1 0.1 0.45 0.15
965 1 0.1 0.4 0.2
966 1 0.15 0.45 0.2
571 1 0.25 0.4 0.15
572 1 0.2 0.45 0.15
969 1 0.2 0.4 0.2
970 1 0.25 0.45 0.2
575 1 0.35 0.4 0.15
576 1 0.3 0.45 0.15
973 1 0.3 0.4 0.2
974 1 0.35 0.45 0.2
579 1 0.45 0.4 0.15
580 1 0.4 0.45 0.15
977 1 0.4 0.4 0.2
978 1 0.45 0.45 0.2
584 1 0.5 0.45 0.15
981 1 0.5 0.4 0.2
583 1 0.55 0.4 0.15
588 1 0.6 0.45 0.15
982 1 0.55 0.45 0.2
985 1 0.6 0.4 0.2
587 1 0.65 0.4 0.15
592 1 0.7 0.45 0.15
986 1 0.65 0.45 0.2
989 1 0.7 0.4 0.2
591 1 0.75 0.4 0.15
596 1 0.8 0.45 0.15
990 1 0.75 0.45 0.2
993 1 0.8 0.4 0.2
595 1 0.85 0.4 0.15
600 1 0.9 0.45 0.15
994 1 0.85 0.45 0.2
997 1 0.9 0.4 0.2
599 1 0.95 0.4 0.15
998 1 0.95 0.45 0.2
603 1 0.05 0.5 0.15
1001 1 0 0.5 0.2
607 1 0.15 0.5 0.15
1005 1 0.1 0.5 0.2
611 1 0.25 0.5 0.15
1009 1 0.2 0.5 0.2
615 1 0.35 0.5 0.15
1013 1 0.3 0.5 0.2
619 1 0.45 0.5 0.15
1017 1 0.4 0.5 0.2
1021 1 0.5 0.5 0.2
623 1 0.55 0.5 0.15
1025 1 0.6 0.5 0.2
627 1 0.65 0.5 0.15
1029 1 0.7 0.5 0.2
631 1 0.75 0.5 0.15
1033 1 0.8 0.5 0.2
635 1 0.85 0.5 0.15
1037 1 0.9 0.5 0.2
639 1 0.95 0.5 0.15
604 1 0 0.55 0.15
643 1 0.05 0.6 0.15
1002 1 0.05 0.55 0.2
1041 1 0 0.6 0.2
608 1 0.1 0.55 0.15
647 1 0.15 0.6 0.15
1006 1 0.15 0.55 0.2
1045 1 0.1 0.6 0.2
612 1 0.2 0.55 0.15
651 1 0.25 0.6 0.15
1010 1 0.25 0.55 0.2
1049 1 0.2 0.6 0.2
616 1 0.3 0.55 0.15
655 1 0.35 0.6 0.15
1014 1 0.35 0.55 0.2
1053 1 0.3 0.6 0.2
620 1 0.4 0.55 0.15
659 1 0.45 0.6 0.15
1018 1 0.45 0.55 0.2
1057 1 0.4 0.6 0.2
624 1 0.5 0.55 0.15
1061 1 0.5 0.6 0.2
628 1 0.6 0.55 0.15
663 1 0.55 0.6 0.15
1022 1 0.55 0.55 0.2
1065 1 0.6 0.6 0.2
632 1 0.7 0.55 0.15
667 1 0.65 0.6 0.15
1026 1 0.65 0.55 0.2
1069 1 0.7 0.6 0.2
636 1 0.8 0.55 0.15
671 1 0.75 0.6 0.15
1030 1 0.75 0.55 0.2
1073 1 0.8 0.6 0.2
640 1 0.9 0.55 0.15
675 1 0.85 0.6 0.15
1034 1 0.85 0.55 0.2
1077 1 0.9 0.6 0.2
679 1 0.95 0.6 0.15
1038 1 0.95 0.55 0.2
644 1 0 0.65 0.15
683 1 0.05 0.7 0.15
1042 1 0.05 0.65 0.2
1081 1 0 0.7 0.2
648 1 0.1 0.65 0.15
687 1 0.15 0.7 0.15
1046 1 0.15 0.65 0.2
1085 1 0.1 0.7 0.2
652 1 0.2 0.65 0.15
691 1 0.25 0.7 0.15
1050 1 0.25 0.65 0.2
1089 1 0.2 0.7 0.2
656 1 0.3 0.65 0.15
695 1 0.35 0.7 0.15
1054 1 0.35 0.65 0.2
1093 1 0.3 0.7 0.2
660 1 0.4 0.65 0.15
699 1 0.45 0.7 0.15
1058 1 0.45 0.65 0.2
1097 1 0.4 0.7 0.2
664 1 0.5 0.65 0.15
1101 1 0.5 0.7 0.2
668 1 0.6 0.65 0.15
703 1 0.55 0.7 0.15
1062 1 0.55 0.65 0.2
1105 1 0.6 0.7 0.2
672 1 0.7 0.65 0.15
707 1 0.65 0.7 0.15
1066 1 0.65 0.65 0.2
1109 1 0.7 0.7 0.2
676 1 0.8 0.65 0.15
711 1 0.75 0.7 0.15
1070 1 0.75 0.65 0.2
1113 1 0.8 0.7 0.2
680 1 0.9 0.65 0.15
715 1 0.85 0.7 0.15
1074 1 0.85 0.65 0.2
1117 1 0.9 0.7 0.2
719 1 0.95 0.7 0.15
1078 1 0.95 0.65 0.2
684 1 0 0.75 0.15
723 1 0.05 0.8 0.15
1082 1 0.05 0.75 0.2
1121 1 0 0.8 0.2
688 1 0.1 0.75 0.15
727 1 0.15 0.8 0.15
1086 1 0.15 0.75 0.2
1125 1 0.1 0.8 0.2
692 1 0.2 0.75 0.15
731 1 0.25 0.8 0.15
1090 1 0.25 0.75 0.2
1129 1 0.2 0.8 0.2
696 1 0.3 0.75 0.15
735 1 0.35 0.8 0.15
1094 1 0.35 0.75 0.2
1133 1 0.3 0.8 0.2
700 1 0.4 0.75 0.15
739 1 0.45 0.8 0.15
1098 1 0.45 0.75 0.2
1137 1 0.4 0.8 0.2
704 1 0.5 0.75 0.15
1141 1 0.5 0.8 0.2
708 1 0.6 0.75 0.15
743 1 0.55 0.8 0.15
1102 1 0.55 0.75 0.2
1145 1 0.6 0.8 0.2
712 1 0.7 0.75 0.15
747 1 0.65 0.8 0.15
1106 1 0.65 0.75 0.2
1149 1 0.7 0.8 0.2
716 1 0.8 0.75 0.15
751 1 0.75 0.8 0.15
1110 1 0.75 0.75 0.2
1153 1 0.8 0.8 0.2
720 1 0.9 0.75 0.15
755 1 0.85 0.8 0.15
1114 1 0.85 0.75 0.2
1157 1 0.9 0.8 0.2
759 1 0.95 0.8 0.15
1118 1 0.95 0.75 0.2
724 1 0 0.85 0.15
763 1 0.05 0.9 0.15
1122 1 0.05 0.85 0.2
1161 1 0 0.9 0.2
728 1 0.1 0.85 0.15
767 1 0.15 0.9 0.15
1126 1 0.15 0.85 0.2
1165 1 0.1 0.9 0.2
732 1 0.2 0.85 0.15
771 1 0.25 0.9 0.15
1130 1 0.25 0.85 0.2
1169 1 0.2 0.9 0.2
736 1 0.3 0.85 0.15
775 1 0.35 0.9 0.15
1134 1 0.35 0.85 0.2
1173 1 0.3 0.9 0.2
740 1 0.4 0.85 0.15
779 1 0.45 0.9 0.15
1138 1 0.45 0.85 0.2
1177 1 0.4 0.9 0.2
744 1 0.5 0.85 0.15
1181 1 0.5 0.9 0.2
748 1 0.6 0.85 0.15
783 1 0.55 0.9 0.15
1142 1 0.55 0.85 0.2
1185 1 0.6 0.9 0.2
752 1 0.7 0.85 0.15
787 1 0.65 0.9 0.15
1146 1 0.65 0.85 0.2
1189 1 0.7 0.9 0.2
756 1 0.8 0.85 0.15
791 1 0.75 0.9 0.15
1150 1 0.75 0.85 0.2
1193 1 0.8 0.9 0.2
760 1 0.9 0.85 0.15
795 1 0.85 0.9 0.15
1154 1 0.85 0.85 0.2
1197 1 0.9 0.9 0.2
799 1 0.95 0.9 0.15
1158 1 0.95 0.85 0.2
764 1 0 0.95 0.15
1162 1 0.05 0.95 0.2
768 1 0.1 0.95 0.15
1166 1 0.15 0.95 0.2
772 1 0.2 0.95 0.15
1170 1 0.25 0.95 0.2
776 1 0.3 0.95 0.15
1174 1 0.35 0.95 0.2
780 1 0.4 0.95 0.15
1178 1 0.45 0.95 0.2
784 1 0.5 0.95 0.15
788 1 0.6 0.95 0.15
1182 1 0.55 0.95 0.2
792 1 0.7 0.95 0.15
1186 1 0.65 0.95 0.2
796 1 0.8 0.95 0.15
1190 1 0.75 0.95 0.2
800 1 0.9 0.95 0.15
1194 1 0.85 0.95 0.2
1198 1 0.95 0.95 0.2
803 1 0.05 0 0.25
804 1 0 0.05 0.25
1201 1 0 0 0.3
1202 1 0.05 0.05 0.3
807 1 0.15 0 0.25
808 1 0.1 0.05 0.25
1205 1 0.1 0 0.3
1206 1 0.15 0.05 0.3
811 1 0.25 0 0.25
812 1 0.2 0.05 0.25
1209 1 0.2 0 0.3
1210 1 0.25 0.05 0.3
815 1 0.35 0 0.25
816 1 0.3 0.05 0.25
1213 1 0.3 0 0.3
1214 1 0.35 0.05 0.3
819 1 0.45 0 0.25
820 1 0.4 0.05 0.25
1217 1 0.4 0 0.3
1218 1 0.45 0.05 0.3
824 1 0.5 0.05 0.25
1221 1 0.5 0 0.3
823 1 0.55 0 0.25
828 1 0.6 0.05 0.25
1222 1 0.55 0.05 0.3
1225 1 0.6 0 0.3
827 1 0.65 0 0.25
832 1 0.7 0.05 0.25
1226 1 0.65 0.05 0.3
1229 1 0.7 0 0.3
831 1 0.75 0 0.25
836 1 0.8 0.05 0.25
1230 1 0.75 0.05 0.3
1233 1 0.8 0 0.3
835 1 0.85 0 0.25
840 1 0.9 0.05 0.25
1234 1 0.85 0.05 0.3
1237 1 0.9 0 0.3
839 1 0.95 0 0.25
1238 1 0.95 0.05 0.3
843 1 0.05 0.1 0.25
844 1 0 0.15 0.25
1241 1 0 0.1 0.3
1242 1 0.05 0.15 0.3
847 1 0.15 0.1 0.25
848 1 0.1 0.15 0.25
1245 1 0.1 0.1 0.3
1246 1 0.15 0.15 0.3
851 1 0.25 0.1 0.25
852 1 0.2 0.15 0.25
1249 1 0.2 0.1 0.3
1250 1 0.25 0.15 0.3
855 1 0.35 0.1 0.25
856 1 0.3 0.15 0.25
1253 1 0.3 0.1 0.3
1254 1 0.35 0.15 0.3
859 1 0.45 0.1 0.25
860 1 0.4 0.15 0.25
1257 1 0.4 0.1 0.3
1258 1 0.45 0.15 0.3
864 1 0.5 0.15 0.25
1261 1 0.5 0.1 0.3
863 1 0.55 0.1 0.25
868 1 0.6 0.15 0.25
1262 1 0.55 0.15 0.3
1265 1 0.6 0.1 0.3
867 1 0.65 0.1 0.25
872 1 0.7 0.15 0.25
1266 1 0.65 0.15 0.3
1269 1 0.7 0.1 0.3
871 1 0.75 0.1 0.25
876 1 0.8 0.15 0.25
1270 1 0.75 0.15 0.3
1273 1 0.8 0.1 0.3
875 1 0.85 0.1 0.25
880 1 0.9 0.15 0.25
1274 1 0.85 0.15 0.3
1277 1 0.9 0.1 0.3
879 1 0.95 0.1 0.25
1278 1 0.95 0.15 0.3
883 1 0.05 0.2 0.25
884 1 0 0.25 0.25
1281 1 0 0.2 0.3
1282 1 0.05 0.25 0.3
887 1 0.15 0.2 0.25
888 1 0.1 0.25 0.25
1285 1 0.1 0.2 0.3
1286 1 0.15 0.25 0.3
891 1 0.25 0.2 0.25
892 1 0.2 0.25 0.25
1289 1 0.2 0.2 0.3
1290 1 0.25 0.25 0.3
895 1 0.35 0.2 0.25
896 1 0.3 0.25 0.25
1293 1 0.3 0.2 0.3
1294 1 0.35 0.25 0.3
899 1 0.45 0.2 0.25
900 1 0.4 0.25 0.25
1297 1 0.4 0.2 0.3
1298 1 0.45 0.25 0.3
904 1 0.5 0.25 0.25
1301 1 0.5 0.2 0.3
903 1 0.55 0.2 0.25
908 1 0.6 0.25 0.25
1302 1 0.55 0.25 0.3
1305 1 0.6 0.2 0.3
907 1 0.65 0.2 0.25
912 1 0.7 0.25 0.25
1306 1 0.65 0.25 0.3
1309 1 0.7 0.2 0.3
911 1 0.75 0.2 0.25
916 1 0.8 0.25 0.25
1310 1 0.75 0.25 0.3
1313 1 0.8 0.2 0.3
915 1 0.85 0.2 0.25
920 1 0.9 0.25 0.25
1314 1 0.85 0.25 0.3
1317 1 0.9 0.2 0.3
919 1 0.95 0.2 0.25
1318 1 0.95 0.25 0.3
923 1 0.05 0.3 0.25
924 1 0 0.35 0.25
1321 1 0 0.3 0.3
1322 1 0.05 0.35 0.3
927 1 0.15 0.3 0.25
928 1 0.1 0.35 0.25
1325 1 0.1 0.3 0.3
1326 1 0.15 0.35 0.3
931 1 0.25 0.3 0.25
932 1 0.2 0.35 0.25
1329 1 0.2 0.3 0.3
1330 1 0.25 0.35 0.3
935 1 0.35 0.3 0.25
936 1 0.3 0.35 0.25
1333 1 0.3 0.3 0.3
1334 1 0.35 0.35 0.3
939 1 0.45 0.3 0.25
940 1 0.4 0.35 0.25
1337 1 0.4 0.3 0.3
1338 1 0.45 0.35 0.3
944 1 0.5 0.35 0.25
1341 1 0.5 0.3 0.3
943 1 0.55 0.3 0.25
948 1 0.6 0.35 0.25
1342 1 0.55 0.35 0.3
1345 1 0.6 0.3 0.3
947 1 0.65 0.3 0.25
952 1 0.7 0.35 0.25
1346 1 0.65 0.35 0.3
1349 1 0.7 0.3 0.3
951 1 0.75 0.3 0.25
956 1 0.8 0.35 0.25
1350 1 0.75 0.35 0.3
1353 1 0.8 0.3 0.3
955 1 0.85 0.3 0.25
960 1 0.9 0.35 0.25
1354 1 0.85 0.35 0.3
1357 1 0.9 0.3 0.3
959 1 0.95 0.3 0.25
1358 1 0.95 0.35 0.3
963 1 0.05 0.4 0.25
964 1 0 0.45 0.25
1361 1 0 0.4 0.3
1362 1 0.05 0.45 0.3
967 1 0.15 0.4 0.25
968 1 0.1 0.45 0.25
1365 1 0.1 0.4 0.3
1366 1 0.15 0.45 0.3
971 1 0.25 0.4 0.25
972 1 0.2 0.45 0.25
1369 1 0.2 0.4 0.3
1370 1 0.25 0.45 0.3
975 1 0.35 0.4 0.25
976 1 0.3 0.45 0.25
1373 1 0.3 0.4 0.3
1374 1 0.35 0.45 0.3
979 1 0.45 0.4 0.25
980 1 0.4 0.45 0.25
1377 1 0.4 0.4 0.3
1378 1 0.45 0.45 0.3
984 1 0.5 0.45 0.25
1381 1 0.5 0.4 0.3
983 1 0.55 0.4 0.25
988 1 0.6 0.45 0.25
1382 1 0.55 0.45 0.3
1385 1 0.6 0.4 0.3
987 1 0.65 0.4 0.25
992 1 0.7 0.45 0.25
1386 1 0.65 0.45 0.3
1389 1 0.7 0.4 0.3
991 1 0.75 0.4 0.25
996 1 0.8 0.45 0.25
1390 1 0.75 0.45 0.3
1393 1 0.8 0.4 0.3
995 1 0.85 0.4 0.25
1000 1 0.9 0.45 0.25
1394 1 0.85 0.45 0.3
1397 1 0.9 0.4 0.3
999 1 0.95 0.4 0.25
1398 1 0.95 0.45 0.3
1003 1 0.05 0.5 0.25
1401 1 0 0.5 0.3
1007 1 0.15 0.5 0.25
1405 1 0.1 0.5 0.3
1011 1 0.25 0.5 0.25
1409 1 0.2 0.5 0.3
1015 1 0.35 0.5 0.25
1413 1 0.3 0.5 0.3
1019 1 0.45 0.5 0.25
1417 1 0.4 0.5 0.3
1421 1 0.5 0.5 0.3
1023 1 0.55 0.5 0.25
1425 1 0.6 0.5 0.3
1027 1 0.65 0.5 0.25
1429 1 0.7 0.5 0.3
1031 1 0.75 0.5 0.25
1433 1 0.8 0.5 0.3
1035 1 0.85 0.5 0.25
1437 1 0.9 0.5 0.3
1039 1 0.95 0.5 0.25
1004 1 0 0.55 0.25
1043 1 0.05 0.6 0.25
1402 1 0.05 0.55 0.3
1441 1 0 0.6 0.3
1008 1 0.1 0.55 0.25
1047 1 0.15 0.6 0.25
1406 1 0.15 0.55 0.3
1445 1 0.1 0.6 0.3
1012 1 0.2 0.55 0.25
1051 1 0.25 0.6 0.25
1410 1 0.25 0.55 0.3
1449 1 0.2 0.6 0.3
1016 1 0.3 0.55 0.25
1055 1 0.35 0.6 0.25
1414 1 0.35 0.55 0.3
1453 1 0.3 0.6 0.3
1020 1 0.4 0.55 0.25
1059 1 0.45 0.6 0.25
1418 1 0.45 0.55 0.3
1457 1 0.4 0.6 0.3
1024 1 0.5 0.55 0.25
1461 1 0.5 0.6 0.3
1028 1 0.6 0.55 0.25
1063 1 0.55 0.6 0.25
1422 1 0.55 0.55 0.3
1465 1 0.6 0.6 0.3
1032 1 0.7 0.55 0.25
1067 1 0.65 0.6 0.25
1426 1 0.65 0.55 0.3
1469 1 0.7 0.6 0.3
1036 1 0.8 0.55 0.25
1071 1 0.75 0.6 0.25
1430 1 0.75 0.55 0.3
1473 1 0.8 0.6 0.3
1040 1 0.9 0.55 0.25
1075 1 0.85 0.6 0.25
1434 1 0.85 0.55 0.3
1477 1 0.9 0.6 0.3
1079 1 0.95 0.6 0.25
1438 1 0.95 0.55 0.3
1044 1 0 0.65 0.25
1083 1 0.05 0.7 0.25
1442 1 0.05 0.65 0.3
1481 1 0 0.7 0.3
1048 1 0.1 0.65 0.25
1087 1 0.15 0.7 0.25
1446 1 0.15 0.65 0.3
1485 1 0.1 0.7 0.3
1052 1 0.2 0.65 0.25
1091 1 0.25 0.7 0.25
1450 1 0.25 0.65 0.3
1489 1 0.2 0.7 0.3
1056 1 0.3 0.65 0.25
1095 1 0.35 0.7 0.25
1454 1 0.35 0.65 0.3
1493 1 0.3 0.7 0.3
1060 1 0.4 0.65 0.25
1099 1 0.45 0.7 0.25
1458 1 0.45 0.65 0.3
1497 1 0.4 0.7 0.3
1064 1 0.5 0.65 0.25
1501 1 0.5 0.7 0.3
1068 1 0.6 0.65 0.25
1103 1 0.55 0.7 0.25
1462 1 0.55 0.65 0.3
1505 1 0.6 0.7 0.3
1072 1 0.7 0.65 0.25
1107 1 0.65 0.7 0.25
1466 1 0.65 0.65 0.3
1509 1 0.7 0.7 0.3
1076 1 0.8 0.65 0.25
1111 1 0.75 0.7 0.25
1470 1 0.75 0.65 0.3
1513 1 0.8 0.7 0.3
1080 1 0.9 0.65 0.25
1115 1 0.85 0.7 0.25
1474 1 0.85 0.65 0.3
1517 1 0.9 0.7 0.3
1119 1 0.95 0.7 0.25
1478 1 0.95 0.65 0.3
1084 1 0 0.75 0.25
1123 1 0.05 0.8 0.25
1482 1 0.05 0.75 0.3
1521 1 0 0.8 0.3
1088 1 0.1 0.75 0.25
1127 1 0.15 0.8 0.25
1486 1 0.15 0.75 0.3
1525 1 0.1 0.8 0.3
1092 1 0.2 0.75 0.25
1131 1 0.25 0.8 0.25
1490 1 0.25 0.75 0.3
1529 1 0.2 0.8 0.3
1096 1 0.3 0.75 0.25
1135 1 0.35 0.8 0.25
1494 1 0.35 0.75 0.3
1533 1 0.3 0.8 0.3
1100 1 0.4 0.75 0.25
1139 1 0.45 0.8 0.25
1498 1 0.45 0.75 0.3
1537 1 0.4 0.8 0.3
1104 1 0.5 0.75 0.25
1541 1 0.5 0.8 0.3
1108 1 0.6 0.75 0.25
1143 1 0.55 0.8 0.25
1502 1 0.55 0.75 0.3
1545 1 0.6 0.8 0.3
1112 1 0.7 0.75 0.25
1147 1 0.65 0.8 0.25
1506 1 0.65 0.75 0.3
1549 1 0.7 0.8 0.3
1116 1 0.8 0.75 0.25
1151 1 0.75 0.8 0.25
1510 1 0.75 0.75 0.3
1553 1 0.8 0.8 0.3
1120 1 0.9 0.75 0.25
1155 1 0.85 0.8 0.25
1514 1 0.85 0.75 0.3
1557 1 0.9 0.8 0.3
1159 1 0.95 0.8 0.25
1518 1 0.95 0.75 0.3
1124 1 0 0.85 0.25
1163 1 0.05 0.9 0.25
1522 1 0.05 0.85 0.3
1561 1 0 0.9 0.3
1128 1 0.1 0.85 0.25
1167 1 0.15 0.9 0.25
1526 1 0.15 0.85 0.3
1565 1 0.1 0.9 0.3
1132 1 0.2 0.85 0.25
1171 1 0.25 0.9 0.25
1530 1 0.25 0.85 0.3
1569 1 0.2 0.9 0.3
1136 1 0.3 0.85 0.25
1175 1 0.35 0.9 0.25
1534 1 0.35 0.85 0.3
1573 1 0.3 0.9 0.3
1140 1 0.4 0.85 0.25
1179 1 0.45 0.9 0.25
1538 1 0.45 0.85 0.3
1577 1 0.4 0.9 0.3
1144 1 0.5 0.85 0.25
1581 1 0.5 0.9 0.3
1148 1 0.6 0.85 0.25
1183 1 0.55 0.9 0.25
1542 1 0.55 0.85 0.3
1585 1 0.6 0.9 0.3
1152 1 0.7 0.85 0.25
1187 1 0.65 0.9 0.25
1546 1 0.65 0.85 0.3
1589 1 0.7 0.9 0.3
1156 1 0.8 0.85 0.25
1191 1 0.75 0.9 0.25
1550 1 0.75 0.85 0.3
1593 1 0.8 0.9 0.3
1160 1 0.9 0.85 0.25
1195 1 0.85 0.9 0.25
1554 1 0.85 0.85 0.3
1597 1 0.9 0.9 0.3
1199 1 0.95 0.9 0.25
1558 1 0.95 0.85 0.3
1164 1 0 0.95 0.25
1562 1 0.05 0.95 0.3
1168 1 0.1 0.95 0.25
1566 1 0.15 0.95 0.3
1172 1 0.2 0.95 0.25
1570 1 0.25 0.95 0.3
1176 1 0.3 0.95 0.25
1574 1 0.35 0.95 0.3
1180 1 0.4 0.95 0.25
1578 1 0.45 0.95 0.3
1184 1 0.5 0.95 0.25
1188 1 0.6 0.95 0.25
1582 1 0.55 0.95 0.3
1192 1 0.7 0.95 0.25
1586 1 0.65 0.95 0.3
1196 1 0.8 0.95 0.25
1590 1 0.75 0.95 0.3
1200 1 0.9 0.95 0.25
1594 1 0.85 0.95 0.3
1598 1 0.95 0.95 0.3
1203 1 0.05 0 0.35
1204 1 0 0.05 0.35
1601 1 0 0 0.4
1602 1 0.05 0.05 0.4
1207 1 0.15 0 0.35
1208 1 0.1 0.05 0.35
1605 1 0.1 0 0.4
1606 1 0.15 0.05 0.4
1211 1 0.25 0 0.35
1212 1 0.2 0.05 0.35
1609 1 0.2 0 0.4
1610 1 0.25 0.05 0.4
1215 1 0.35 0 0.35
1216 1 0.3 0.05 0.35
1613 1 0.3 0 0.4
1614 1 0.35 0.05 0.4
1219 1 0.45 0 0.35
1220 1 0.4 0.05 0.35
1617 1 0.4 0 0.4
1618 1 0.45 0.05 0.4
1224 1 0.5 0.05 0.35
1621 1 0.5 0 0.4
1223 1 0.55 0 0.35
1228 1 0.6 0.05 0.35
1622 1 0.55 0.05 0.4
1625 1 0.6 0 0.4
1227 1 0.65 0 0.35
1232 1 0.7 0.05 0.35
1626 1 0.65 0.05 0.4
1629 1 0.7 0 0.4
1231 1 0.75 0 0.35
1236 1 0.8 0.05 0.35
1630 1 0.75 0.05 0.4
1633 1 0.8 0 0.4
1235 1 0.85 0 0.35
1240 1 0.9 0.05 0.35
1634 1 0.85 0.05 0.4
1637 1 0.9 0 0.4
1239 1 0.95 0 0.35
1638 1 0.95 0.05 0.4
1243 1 0.05 0.1 0.35
1244 1 0 0.15 0.35
1641 1 0 0.1 0.4
1642 1 0.05 0.15 0.4
1247 1 0.15 0.1 0.35
1248 1 0.1 0.15 0.35
1645 1 0.1 0.1 0.4
1646 1 0.15 0.15 0.4
1251 1 0.25 0.1 0.35
1252 1 0.2 0.15 0.35
1649 1 0.2 0.1 0.4
1650 1 0.25 0.15 0.4
1255 1 0.35 0.1 0.35
1256 1 0.3 0.15 0.35
1653 1 0.3 0.1 0.4
1654 1 0.35 0.15 0.4
1259 1 0.45 0.1 0.35
1260 1 0.4 0.15 0.35
1657 1 0.4 0.1 0.4
1658 1 0.45 0.15 0.4
1264 1 0.5 0.15 0.35
1661 1 0.5 0.1 0.4
1263 1 0.55 0.1 0.35
1268 1 0.6 0.15 0.35
1662 1 0.55 0.15 0.4
1665 1 0.6 0.1 0.4
1267 1 0.65 0.1 0.35
1272 1 0.7 0.15 0.35
1666 1 0.65 0.15 0.4
1669 1 0.7 0.1 0.4
1271 1 0.75 0.1 0.35
1276 1 0.8 0.15 0.35
1670 1 0.75 0.15 0.4
1673 1 0.8 0.1 0.4
1275 1 0.85 0.1 0.35
1280 1 0.9 0.15 0.35
1674 1 0.85 0.15 0.4
1677 1 0.9 0.1 0.4
1279 1 0.95 0.1 0.35
1678 1 0.95 0.15 0.4
1283 1 0.05 0.2 0.35
1284 1 0 0.25 0.35
1681 1 0 0.2 0.4
1682 1 0.05 0.25 0.4
1287 1 0.15 0.2 0.35
1288 1 0.1 0.25 0.35
1685 1 0.1 0.2 0.4
1686 1 0.15 0.25 0.4
1291 1 0.25 0.2 0.35
1292 1 0.2 0.25 0.35
1689 1 0.2 0.2 0.4
1690 1 0.25 0.25 0.4
1295 1 0.35 0.2 0.35
1296 1 0.3 0.25 0.35
1693 1 0.3 0.2 0.4
1694 1 0.35 0.25 0.4
1299 1 0.45 0.2 0.35
1300 1 0.4 0.25 0.35
1697 1 0.4 0.2 0.4
1698 1 0.45 0.25 0.4
1304 1 0.5 0.25 0.35
1701 1 0.5 0.2 0.4
1303 1 0.55 0.2 0.35
1308 1 0.6 0.25 0.35
1702 1 0.55 0.25 0.4
1705 1 0.6 0.2 0.4
1307 1 0.65 0.2 0.35
1312 1 0.7 0.25 0.35
1706 1 0.65 0.25 0.4
1709 1 0.7 0.2 0.4
1311 1 0.75 0.2 0.35
1316 1 0.8 0.25 0.35
1710 1 0.75 0.25 0.4
1713 1 0.8 0.2 0.4
1315 1 0.85 0.2 0.35
1320 1 0.9 0.25 0.35
1714 1 0.85 0.25 0.4
1717 1 0.9 0.2 0.4
1319 1 0.95 0.2 0.35
1718 1 0.95 0.25 0.4
1323 1 0.05 0.3 0.35
1324 1 0 0.35 0.35
1721 1 0 0.3 0.4
1722 1 0.05 0.35 0.4
1327 1 0.15 0.3 0.35
1328 1 0.1 0.35 0.35
1725 1 0.1 0.3 0.4
1726 1 0.15 0.35 0.4
1331 1 0.25 0.3 0.35
1332 1 0.2 0.35 0.35
1729 1 0.2 0.3 0.4
1730 1 0.25 0.35 0.4
1335 1 0.35 0.3 0.35
1336 1 0.3 0.35 0.35
1733 1 0.3 0.3 0.4
1734 1 0.35 0.35 0.4
1339 1 0.45 0.3 0.35
1340 1 0.4 0.35 0.35
1737 1 0.4 0.3 0.4
1738 1 0.45 0.35 0.4
1344 1 0.5 0.35 0.35
1741 1 0.5 0.3 0.4
1343 1 0.55 0.3 0.35
1348 1 0.6 0.35 0.35
1742 1 0.55 0.35 0.4
1745 1 0.6 0.3 0.4