
Host: cs016.hpc.nyu.edu

Timers On : Thu Nov 30 15:32:08 2023
Timers Off: Thu Nov 30 15:32:08 2023

Wall Time:        0.41 seconds

                                                       Time (seconds)
Module                                       User      System        Wall        Calls

--------------------------------------------------------------------------------------

**************************************************************************************
