ITEM: TIMESTEP
100000
ITEM: NUMBER OF ATOMS
400
ITEM: BOX BOUNDS pp pp pp
0.0000000000000000e+00 2.1081851067789195e+01
0.0000000000000000e+00 2.1081851067789195e+01
-5.2704627669472992e-01 5.2704627669472992e-01
ITEM: ATOMS id type xs ys zs
358 1 0.0926987 0.0159905 0.5
119 1 0.176867 0.0593473 0.5
71 1 0.067567 0.975834 0.5
315 1 0.247825 0.00399127 0.5
182 1 0.306334 0.0908464 0.5
173 1 0.483166 0.00712646 0.5
154 1 0.0389015 0.291031 0.5
102 1 0.06014 0.103016 0.5
188 1 0.409386 0.0994116 0.5
61 1 0.354881 0.116983 0.5
193 1 0.337749 0.937294 0.5
290 1 0.428117 0.00602328 0.5
206 1 0.490341 0.279833 0.5
372 1 0.171284 0.00386522 0.5
304 1 0.343375 0.16655 0.5
129 1 0.466429 0.819365 0.5
99 1 0.407061 0.0502999 0.5
197 1 0.457957 0.0497629 0.5
222 1 0.486787 0.626264 0.5
340 1 0.151734 0.151759 0.5
228 1 0.228828 0.0885132 0.5
59 1 0.322246 0.0454065 0.5
348 1 0.358558 0.221305 0.5
243 1 0.395967 0.143558 0.5
363 1 0.00435076 0.951315 0.5
339 1 0.130715 0.0814854 0.5
164 1 0.227235 0.0429561 0.5
219 1 0.199105 0.158512 0.5
45 1 0.294381 0.136365 0.5
186 1 0.440973 0.162834 0.5
50 1 0.455612 0.104617 0.5
266 1 0.365437 0.0745594 0.5
224 1 0.171383 0.106457 0.5
36 1 0.21849 0.232333 0.5
65 1 0.266524 0.240842 0.5
303 1 0.403755 0.193803 0.5
287 1 0.0306338 0.0567472 0.5
120 1 0.428681 0.33155 0.5
118 1 0.0859983 0.280558 0.5
220 1 0.115398 0.126521 0.5
382 1 0.252444 0.17655 0.5
128 1 0.243012 0.133807 0.5
379 1 0.450313 0.225131 0.5
178 1 0.41148 0.382408 0.5
112 1 0.102341 0.238095 0.5
68 1 0.181467 0.202066 0.5
229 1 0.191672 0.277528 0.5
366 1 0.297132 0.183957 0.5
18 1 0.345548 0.365275 0.5
35 1 0.353687 0.26624 0.5
245 1 0.380928 0.33543 0.5
89 1 0.070273 0.151257 0.5
269 1 0.126987 0.19645 0.5
265 1 0.241415 0.28114 0.5
75 1 0.304111 0.280378 0.5
25 1 0.310909 0.237199 0.5
253 1 0.396943 0.291833 0.5
293 1 0.466752 0.372911 0.5
260 1 0.0210956 0.185631 0.5
274 1 0.0770065 0.197768 0.5
268 1 0.282517 0.320962 0.5
201 1 0.336646 0.319314 0.5
223 1 0.3371 0.417742 0.5
393 1 0.397244 0.424418 0.5
313 1 0.384172 0.921024 0.5
241 1 0.158199 0.243057 0.5
262 1 0.217165 0.32139 0.5
390 1 0.249389 0.359345 0.5
168 1 0.295491 0.362967 0.5
389 1 0.365079 0.0266335 0.5
122 1 0.0888166 0.382625 0.5
142 1 0.044894 0.353413 0.5
141 1 0.136975 0.296655 0.5
218 1 0.218363 0.412921 0.5
263 1 0.287784 0.410181 0.5
295 1 0.36694 0.461087 0.5
149 1 0.410416 0.883564 0.5
198 1 0.086838 0.332426 0.5
160 1 0.124837 0.354717 0.5
199 1 0.171616 0.329225 0.5
375 1 0.304208 0.456078 0.5
397 1 0.414365 0.467796 0.5
51 1 0.445982 0.41421 0.5
117 1 0.204533 0.368182 0.5
147 1 0.141398 0.483279 0.5
107 1 0.259424 0.445902 0.5
136 1 0.271265 0.490162 0.5
246 1 0.379172 0.50549 0.5
373 1 0.132896 0.967354 0.5
179 1 0.377708 0.835909 0.5
87 1 0.153421 0.399708 0.5
239 1 0.174289 0.449462 0.5
210 1 0.186618 0.499578 0.5
114 1 0.221149 0.470423 0.5
63 1 0.231219 0.524499 0.5
96 1 0.426827 0.840503 0.5
387 1 0.46317 0.922218 0.5
250 1 0.0420683 0.402041 0.5
54 1 0.0806227 0.426554 0.5
148 1 0.0832418 0.476219 0.5
150 1 0.249356 0.574147 0.5
140 1 0.333262 0.501221 0.5
7 1 0.404986 0.241001 0.5
271 1 0.494887 0.409974 0.5
39 1 0.125941 0.436946 0.5
361 1 0.199851 0.557191 0.5
231 1 0.294441 0.546465 0.5
12 1 0.350162 0.545523 0.5
362 1 0.465485 0.463845 0.5
190 1 0.442449 0.28123 0.5
83 1 0.0524907 0.51466 0.5
378 1 0.103945 0.532552 0.5
341 1 0.152193 0.533274 0.5
21 1 0.19516 0.604085 0.5
17 1 0.396024 0.55006 0.5
41 1 0.0391079 0.468174 0.5
289 1 0.0544047 0.568102 0.5
196 1 0.341964 0.645447 0.5
82 1 0.243606 0.619983 0.5
258 1 0.44521 0.569106 0.5
279 1 0.430482 0.513828 0.5
134 1 0.434855 0.786819 0.5
127 1 0.058212 0.614204 0.5
22 1 0.104248 0.587744 0.5
169 1 0.15302 0.58445 0.5
64 1 0.33945 0.600133 0.5
305 1 0.387213 0.592566 0.5
331 1 0.486967 0.554905 0.5
62 1 0.491277 0.960285 0.5
2 1 0.476865 0.77002 0.5
30 1 0.00740269 0.588054 0.5
26 1 0.209252 0.661334 0.5
55 1 0.409711 0.690691 0.5
285 1 0.0289819 0.651621 0.5
105 1 0.0718715 0.678371 0.5
319 1 0.119444 0.684846 0.5
312 1 0.292595 0.597059 0.5
324 1 0.429384 0.615811 0.5
180 1 0.450567 0.729079 0.5
278 1 0.0880122 0.0639379 0.5
11 1 0.0476377 0.749006 0.5
48 1 0.108749 0.640532 0.5
92 1 0.263291 0.683838 0.5
204 1 0.392117 0.646336 0.5
42 1 0.0343996 0.84833 0.5
162 1 0.0573265 0.238026 0.5
170 1 0.15533 0.632447 0.5
44 1 0.220496 0.706949 0.5
171 1 0.363524 0.683197 0.5
47 1 0.0333014 0.800065 0.5
249 1 0.137995 0.736592 0.5
113 1 0.0864572 0.72434 0.5
53 1 0.187741 0.737994 0.5
110 1 0.181772 0.808753 0.5
20 1 0.214134 0.776001 0.5
396 1 0.253768 0.743716 0.5
184 1 0.405607 0.737451 0.5
76 1 0.286131 0.846555 0.5
338 1 0.482879 0.328523 0.5
183 1 0.094796 0.773776 0.5
69 1 0.300008 0.744577 0.5
352 1 0.290914 0.647581 0.5
207 1 0.264838 0.792548 0.5
297 1 0.12183 0.814945 0.5
34 1 0.159204 0.855051 0.5
152 1 0.0733294 0.823691 0.5
6 1 0.204171 0.869477 0.5
327 1 0.316225 0.696017 0.5
371 1 0.330029 0.840359 0.5
280 1 0.484033 0.184887 0.5
356 1 0.0947902 0.938995 0.5
133 1 0.163368 0.699113 0.5
272 1 0.248558 0.882688 0.5
326 1 0.372469 0.78265 0.5
311 1 0.277749 0.0464814 0.5
74 1 0.447885 0.664511 0.5
248 1 0.0145809 0.894216 0.5
365 1 0.133695 0.906361 0.5
394 1 0.178639 0.92601 0.5
385 1 0.238969 0.837979 0.5
318 1 0.296127 0.90045 0.5
203 1 0.321968 0.784714 0.5
16 1 0.296332 1.00007 0.5
238 1 0.232244 0.931388 0.5
177 1 0.359428 0.735024 0.5
70 1 0.361869 0.876941 0.5
116 1 0.0608327 0.885412 0.5
94 1 0.0465447 0.932357 0.5
360 1 0.201001 0.965986 0.5
384 1 0.135698 0.0329238 0.5
261 1 0.106708 0.86341 0.5
56 1 0.268139 0.965106 0.5
383 1 0.3729 0.979775 0.5
33 1 0.426525 0.958604 0.5
370 1 0.0114262 0.140723 0.5
357 1 0.0361771 0.0093629 0.5
252 1 0.485642 0.137196 0.5
376 1 0.472168 0.870056 0.5
256 1 0.00385839 0.504043 0.5
8 1 0.0241746 0.700765 0.5
264 1 0.492217 0.509673 0.5
109 1 0.00574943 0.0954052 0.5
392 1 0.0116345 0.245569 0.5
291 1 0.00224437 0.764326 0.5
380 1 0.506859 0.0962898 0.5
151 1 0.599057 0.0685416 0.5
332 1 0.770956 0.0665127 0.5
155 1 0.92406 0.933653 0.5
314 1 0.550084 0.0770293 0.5
242 1 0.961453 0.903457 0.5
270 1 0.657454 0.0651003 0.5
146 1 0.762897 0.9648 0.5
309 1 0.856102 0.0217288 0.5
165 1 0.912051 0.99063 0.5
28 1 0.863137 0.066712 0.5
330 1 0.9395 0.435552 0.5
294 1 0.580269 0.110821 0.5
377 1 0.782913 0.113116 0.5
46 1 0.683351 0.167043 0.5
337 1 0.738817 0.0155157 0.5
13 1 0.90339 0.0426581 0.5
316 1 0.91188 0.0911689 0.5
78 1 0.870809 0.969949 0.5
174 1 0.533601 0.181592 0.5
176 1 0.582298 0.157372 0.5
144 1 0.675178 0.11532 0.5
166 1 0.721276 0.248583 0.5
216 1 0.870925 0.114298 0.5
72 1 0.925056 0.139366 0.5
333 1 0.944644 0.023991 0.5
125 1 0.575487 0.209818 0.5
233 1 0.643981 0.146777 0.5
123 1 0.759135 0.20896 0.5
66 1 0.976969 0.623468 0.5
320 1 0.519049 0.462989 0.5
90 1 0.630349 0.102665 0.5
111 1 0.724903 0.121494 0.5
23 1 0.833358 0.145307 0.5
175 1 0.823931 0.0919772 0.5
10 1 0.896098 0.22724 0.5
27 1 0.921987 0.187757 0.5
267 1 0.601858 0.399898 0.5
391 1 0.523151 0.865059 0.5
211 1 0.703492 0.205903 0.5
321 1 0.555493 0.899869 0.5
281 1 0.511039 0.229421 0.5
95 1 0.736357 0.167507 0.5
212 1 0.848933 0.220538 0.5
73 1 0.876549 0.163544 0.5
276 1 0.961755 0.215453 0.5
323 1 0.518032 0.71229 0.5
257 1 0.97322 0.855947 0.5
85 1 0.718643 0.292015 0.5
346 1 0.803878 0.2038 0.5
310 1 0.877687 0.268765 0.5
143 1 0.931813 0.259856 0.5
81 1 0.526546 0.994833 0.5
275 1 0.521432 0.593022 0.5
237 1 0.604381 0.243005 0.5
106 1 0.632057 0.191348 0.5
300 1 0.770478 0.254689 0.5
157 1 0.815664 0.254405 0.5
349 1 0.914145 0.302812 0.5
347 1 0.512464 0.364122 0.5
344 1 0.893816 0.345302 0.5
328 1 0.551029 0.269162 0.5
214 1 0.57497 0.304288 0.5
202 1 0.661574 0.244805 0.5
308 1 0.799594 0.300813 0.5
236 1 0.845145 0.304301 0.5
398 1 0.955932 0.31609 0.5
77 1 0.539757 0.13509 0.5
15 1 0.559819 0.348152 0.5
159 1 0.755127 0.320063 0.5
37 1 0.884971 0.398324 0.5
58 1 0.555758 0.399076 0.5
317 1 0.61066 0.334857 0.5
306 1 0.651055 0.40227 0.5
399 1 0.65767 0.350285 0.5
167 1 0.709644 0.342845 0.5
115 1 0.799063 0.370665 0.5
31 1 0.846077 0.354592 0.5
277 1 0.963029 0.0638087 0.5
84 1 0.619179 0.449839 0.5
232 1 0.876809 0.502481 0.5
97 1 0.986525 0.283047 0.5
364 1 0.547494 0.501089 0.5
163 1 0.642573 0.503791 0.5
98 1 0.644716 0.294627 0.5
251 1 0.738113 0.388362 0.5
234 1 0.783938 0.494129 0.5
368 1 0.834536 0.404415 0.5
100 1 0.902657 0.459986 0.5
88 1 0.850055 0.458024 0.5
353 1 0.594491 0.503453 0.5
156 1 0.697379 0.416347 0.5
302 1 0.829371 0.499266 0.5
322 1 0.875075 0.54648 0.5
325 1 0.922733 0.510152 0.5
192 1 0.960053 0.111884 0.5
57 1 0.539881 0.54543 0.5
336 1 0.676457 0.468806 0.5
52 1 0.755312 0.432496 0.5
1 1 0.723974 0.470675 0.5
225 1 0.963993 0.484637 0.5
108 1 0.528883 0.313582 0.5
286 1 0.574136 0.595692 0.5
343 1 0.592721 0.64692 0.5
19 1 0.619944 0.589438 0.5
191 1 0.68913 0.529148 0.5
240 1 0.765594 0.599499 0.5
296 1 0.825229 0.568388 0.5
359 1 0.923453 0.556398 0.5
388 1 0.601781 0.902716 0.5
9 1 0.99169 0.398099 0.5
345 1 0.746721 0.52429 0.5
335 1 0.785332 0.544661 0.5
104 1 0.801862 0.660744 0.5
43 1 0.891084 0.653443 0.5
38 1 0.869364 0.603606 0.5
273 1 0.540708 0.63588 0.5
79 1 0.640992 0.548852 0.5
40 1 0.803668 0.447664 0.5
32 1 0.724045 0.618079 0.5
60 1 0.826547 0.621059 0.5
355 1 0.834826 0.895627 0.5
131 1 0.604343 0.715596 0.5
255 1 0.593506 0.551731 0.5
5 1 0.75434 0.656344 0.5
124 1 0.912445 0.707236 0.5
209 1 0.936745 0.664505 0.5
153 1 0.552822 0.680315 0.5
24 1 0.648247 0.703485 0.5
247 1 0.724163 0.567932 0.5
221 1 0.649129 0.657574 0.5
235 1 0.814197 0.705385 0.5
194 1 0.867043 0.698905 0.5
86 1 0.961916 0.721131 0.5
3 1 0.532973 0.766698 0.5
138 1 0.587711 0.768447 0.5
386 1 0.616156 0.821641 0.5
354 1 0.672949 0.593005 0.5
14 1 0.769131 0.700348 0.5
329 1 0.86372 0.744276 0.5
284 1 0.979502 0.674873 0.5
215 1 0.569822 0.448421 0.5
367 1 0.970923 0.540009 0.5
132 1 0.50995 0.907899 0.5
374 1 0.633432 0.749278 0.5
292 1 0.708742 0.702924 0.5
126 1 0.812681 0.751543 0.5
301 1 0.512452 0.820655 0.5
395 1 0.735355 0.785888 0.5
213 1 0.749473 0.740939 0.5
158 1 0.779842 0.788608 0.5
67 1 0.954551 0.776238 0.5
185 1 0.937444 0.387716 0.5
139 1 0.511323 0.0467357 0.5
189 1 0.987718 0.445693 0.5
161 1 0.67925 0.757841 0.5
350 1 0.652791 0.797821 0.5
101 1 0.694088 0.657628 0.5
205 1 0.910217 0.754837 0.5
91 1 0.941947 0.821295 0.5
137 1 0.78015 0.158861 0.5
195 1 0.584986 0.854828 0.5
4 1 0.747501 0.835198 0.5
208 1 0.796823 0.84592 0.5
283 1 0.87802 0.804585 0.5
93 1 0.919168 0.615838 0.5
135 1 0.660158 0.849468 0.5
187 1 0.702654 0.816309 0.5
121 1 0.790499 0.00302324 0.5
230 1 0.748664 0.880198 0.5
227 1 0.850456 0.842724 0.5
400 1 0.924853 0.866913 0.5
334 1 0.564872 0.0344174 0.5
351 1 0.616634 0.956242 0.5
369 1 0.552152 0.955228 0.5
181 1 0.704822 0.866665 0.5
259 1 0.814844 0.960403 0.5
49 1 0.881556 0.877435 0.5
299 1 0.811584 0.0475846 0.5
130 1 0.972771 0.171439 0.5
288 1 0.588271 0.994912 0.5
29 1 0.720108 0.923504 0.5
200 1 0.663365 0.898732 0.5
254 1 0.786242 0.91752 0.5
80 1 0.664437 0.957043 0.5
282 1 0.827156 0.796959 0.5
381 1 0.994904 0.348957 0.5
226 1 0.560382 0.811184 0.5
244 1 0.709169 0.971395 0.5
342 1 0.871733 0.923197 0.5
172 1 0.961365 0.976997 0.5
145 1 0.63941 0.0137555 0.5
298 1 0.710245 0.0738325 0.5
103 1 0.684569 0.0119394 0.5
217 1 0.993533 0.0271212 0.5
307 1 0.987333 0.809222 0.5
