ITEM: TIMESTEP
100000
ITEM: NUMBER OF ATOMS
400
ITEM: BOX BOUNDS pp pp pp
0.0000000000000000e+00 1.9069251784911849e+01
0.0000000000000000e+00 1.9069251784911849e+01
-4.7673129462279618e-01 4.7673129462279618e-01
ITEM: ATOMS id type xs ys zs
210 1 0.0389979 0.990294 0.5
23 1 0.093862 0.0064972 0.5
26 1 0.144019 0.997926 0.5
45 1 0.200743 0.0148689 0.5
17 1 0.250129 0.0176637 0.5
7 1 0.30675 0.0212576 0.5
36 1 0.235129 0.96964 0.5
219 1 0.0560984 0.0489344 0.5
22 1 0.112097 0.0564973 0.5
24 1 0.164285 0.055985 0.5
35 1 0.214386 0.0649295 0.5
28 1 0.35824 0.0320671 0.5
30 1 0.408553 0.0367917 0.5
221 1 0.458572 0.0438914 0.5
1 1 0.0302884 0.10119 0.5
11 1 0.083131 0.0992209 0.5
44 1 0.262786 0.0694575 0.5
37 1 0.31499 0.0734059 0.5
29 1 0.37142 0.0831298 0.5
231 1 0.419393 0.0881283 0.5
212 1 0.475871 0.0953033 0.5
20 1 0.484368 0.00204322 0.5
33 1 0.134212 0.109012 0.5
34 1 0.186233 0.113781 0.5
43 1 0.236696 0.120633 0.5
38 1 0.295454 0.119462 0.5
39 1 0.345842 0.129261 0.5
40 1 0.397589 0.136066 0.5
232 1 0.450062 0.14046 0.5
27 1 0.300438 0.92398 0.5
41 1 0.0573914 0.147911 0.5
53 1 0.1093 0.153638 0.5
63 1 0.160491 0.156111 0.5
54 1 0.209522 0.165404 0.5
51 1 0.0259942 0.19345 0.5
74 1 0.0758199 0.196159 0.5
64 1 0.129798 0.204629 0.5
55 1 0.18273 0.211621 0.5
58 1 0.264632 0.167787 0.5
47 1 0.317467 0.171037 0.5
49 1 0.370275 0.178072 0.5
50 1 0.420634 0.185364 0.5
241 1 0.472055 0.193493 0.5
62 1 0.0442705 0.240594 0.5
68 1 0.231146 0.20911 0.5
59 1 0.281535 0.219512 0.5
48 1 0.33168 0.222269 0.5
60 1 0.385381 0.226836 0.5
251 1 0.437362 0.233709 0.5
370 1 0.0071894 0.711397 0.5
66 1 0.0951575 0.250473 0.5
56 1 0.148093 0.260208 0.5
46 1 0.197071 0.260583 0.5
96 1 0.251295 0.263386 0.5
86 1 0.303751 0.266375 0.5
72 1 0.0181787 0.282875 0.5
75 1 0.0704953 0.296207 0.5
85 1 0.123204 0.304661 0.5
76 1 0.174773 0.306749 0.5
87 1 0.225886 0.307822 0.5
57 1 0.355205 0.267757 0.5
69 1 0.404959 0.282469 0.5
70 1 0.45518 0.281108 0.5
61 1 0.0432068 0.340161 0.5
65 1 0.0947072 0.34487 0.5
94 1 0.149863 0.350019 0.5
98 1 0.279516 0.311381 0.5
77 1 0.328724 0.315795 0.5
67 1 0.378382 0.32554 0.5
79 1 0.431825 0.329225 0.5
261 1 0.48158 0.330943 0.5
110 1 0.498992 0.571287 0.5
84 1 0.060903 0.386882 0.5
116 1 0.199291 0.354068 0.5
107 1 0.249453 0.360768 0.5
126 1 0.300593 0.358005 0.5
78 1 0.350417 0.369714 0.5
89 1 0.401836 0.374726 0.5
104 1 0.109386 0.393069 0.5
106 1 0.161371 0.400319 0.5
97 1 0.211995 0.401451 0.5
125 1 0.261905 0.408136 0.5
80 1 0.458781 0.376504 0.5
81 1 0.0264778 0.426031 0.5
95 1 0.0757043 0.434498 0.5
115 1 0.132054 0.441224 0.5
134 1 0.183458 0.444849 0.5
128 1 0.31872 0.411128 0.5
88 1 0.368193 0.417521 0.5
100 1 0.420864 0.421945 0.5
90 1 0.479922 0.430912 0.5
211 1 0.430611 0.991883 0.5
129 1 0.23328 0.450288 0.5
127 1 0.288304 0.452237 0.5
108 1 0.340785 0.460715 0.5
117 1 0.391732 0.465929 0.5
133 1 0.0480423 0.47897 0.5
123 1 0.101416 0.485962 0.5
93 1 0.152344 0.488899 0.5
114 1 0.207132 0.493212 0.5
113 1 0.260514 0.500866 0.5
99 1 0.310975 0.503355 0.5
109 1 0.361555 0.509204 0.5
119 1 0.449094 0.473063 0.5
14 1 0.113803 0.955673 0.5
92 1 0.0215841 0.522554 0.5
122 1 0.0722388 0.530217 0.5
142 1 0.129448 0.534926 0.5
105 1 0.179403 0.540274 0.5
136 1 0.234274 0.543025 0.5
146 1 0.282736 0.547306 0.5
130 1 0.419009 0.516485 0.5
341 1 0.471855 0.521312 0.5
112 1 0.0449994 0.573197 0.5
132 1 0.0973619 0.577485 0.5
143 1 0.148659 0.581569 0.5
138 1 0.333681 0.551858 0.5
148 1 0.387332 0.555575 0.5
301 1 0.444717 0.565876 0.5
242 1 0.498578 0.240167 0.5
163 1 0.20367 0.583347 0.5
139 1 0.255174 0.590954 0.5
155 1 0.302616 0.596529 0.5
124 1 0.362908 0.599546 0.5
291 1 0.412166 0.606194 0.5
140 1 0.467127 0.613495 0.5
151 1 0.0132315 0.614793 0.5
157 1 0.0653202 0.616571 0.5
181 1 0.116633 0.628411 0.5
154 1 0.169791 0.627482 0.5
137 1 0.220803 0.632002 0.5
158 1 0.272754 0.640696 0.5
166 1 0.321897 0.648462 0.5
152 1 0.0382518 0.663531 0.5
184 1 0.0871496 0.67356 0.5
162 1 0.141373 0.674438 0.5
171 1 0.192013 0.681504 0.5
156 1 0.383632 0.648087 0.5
150 1 0.436695 0.653887 0.5
342 1 0.487461 0.664705 0.5
230 1 0.00853671 0.0366304 0.5
360 1 0.0578545 0.714044 0.5
161 1 0.11139 0.721754 0.5
147 1 0.247516 0.689673 0.5
164 1 0.2993 0.695294 0.5
187 1 0.349305 0.691407 0.5
351 1 0.398375 0.700885 0.5
159 1 0.454072 0.704775 0.5
182 1 0.16393 0.724457 0.5
172 1 0.215452 0.727354 0.5
145 1 0.27002 0.740281 0.5
178 1 0.319633 0.743283 0.5
177 1 0.369558 0.746985 0.5
169 1 0.419307 0.749564 0.5
361 1 0.473227 0.754541 0.5
390 1 0.023087 0.757657 0.5
350 1 0.0800744 0.764428 0.5
183 1 0.132508 0.769959 0.5
194 1 0.184135 0.771579 0.5
174 1 0.239606 0.782495 0.5
135 1 0.289135 0.786854 0.5
167 1 0.338096 0.791021 0.5
19 1 0.378552 0.98557 0.5
2 1 0.0450618 0.805266 0.5
192 1 0.0999061 0.812394 0.5
173 1 0.150803 0.820792 0.5
168 1 0.393549 0.796389 0.5
190 1 0.44757 0.800793 0.5
175 1 0.201993 0.821191 0.5
165 1 0.25593 0.829166 0.5
176 1 0.306985 0.834986 0.5
188 1 0.359906 0.83863 0.5
199 1 0.415605 0.84666 0.5
381 1 0.46508 0.851988 0.5
3 1 0.0159742 0.851131 0.5
193 1 0.075164 0.855022 0.5
5 1 0.12564 0.867098 0.5
195 1 0.173802 0.873091 0.5
197 1 0.225393 0.867867 0.5
186 1 0.277283 0.877961 0.5
189 1 0.33102 0.880218 0.5
198 1 0.383825 0.885072 0.5
18 1 0.435998 0.892506 0.5
9 1 0.486665 0.905697 0.5
12 1 0.0386407 0.898895 0.5
4 1 0.092854 0.90225 0.5
15 1 0.146951 0.916148 0.5
185 1 0.201993 0.913368 0.5
6 1 0.250913 0.919505 0.5
399 1 0.0137111 0.942306 0.5
13 1 0.0661971 0.947612 0.5
25 1 0.182066 0.962068 0.5
16 1 0.324505 0.975791 0.5
196 1 0.349764 0.931525 0.5
8 1 0.400656 0.938939 0.5
200 1 0.453236 0.945554 0.5
73 1 0.00590951 0.377206 0.5
371 1 0.498162 0.813175 0.5
120 1 0.501357 0.480195 0.5
32 1 0.00472445 0.146069 0.5
391 1 0.535932 0.0041322 0.5
201 1 0.591981 0.0101868 0.5
393 1 0.642854 0.0131434 0.5
374 1 0.693616 0.016296 0.5
385 1 0.746242 0.0254829 0.5
216 1 0.798986 0.0268924 0.5
386 1 0.853273 0.0360866 0.5
367 1 0.903989 0.0326213 0.5
218 1 0.935508 0.985041 0.5
222 1 0.558274 0.0547835 0.5
202 1 0.60942 0.0618974 0.5
203 1 0.659015 0.0661892 0.5
397 1 0.712707 0.0670003 0.5
377 1 0.955714 0.0403111 0.5
213 1 0.528296 0.101578 0.5
204 1 0.580355 0.105017 0.5
206 1 0.769536 0.0711738 0.5
368 1 0.821187 0.0767181 0.5
208 1 0.87559 0.0796253 0.5
220 1 0.934274 0.0845182 0.5
229 1 0.982562 0.0804279 0.5
394 1 0.632976 0.10802 0.5
384 1 0.687923 0.109467 0.5
396 1 0.738027 0.109975 0.5
227 1 0.787239 0.118506 0.5
228 1 0.846612 0.123565 0.5
21 1 0.897316 0.129207 0.5
240 1 0.957677 0.132727 0.5
224 1 0.55079 0.152916 0.5
214 1 0.603952 0.15031 0.5
395 1 0.656241 0.155204 0.5
236 1 0.716899 0.156128 0.5
207 1 0.767457 0.16532 0.5
238 1 0.816001 0.169474 0.5
233 1 0.524978 0.194069 0.5
234 1 0.575419 0.198172 0.5
205 1 0.627635 0.198087 0.5
215 1 0.679199 0.201513 0.5
248 1 0.863323 0.170933 0.5
239 1 0.922998 0.178237 0.5
42 1 0.973893 0.18758 0.5
243 1 0.550543 0.249697 0.5
245 1 0.734038 0.205969 0.5
237 1 0.786665 0.213335 0.5
258 1 0.836476 0.219952 0.5
249 1 0.889146 0.222247 0.5
31 1 0.943697 0.228208 0.5
271 1 0.507428 0.390199 0.5
225 1 0.599924 0.241715 0.5
244 1 0.649497 0.249436 0.5
256 1 0.697642 0.247933 0.5
246 1 0.750838 0.257899 0.5
247 1 0.804068 0.263536 0.5
259 1 0.86003 0.269341 0.5
252 1 0.514095 0.288079 0.5
253 1 0.564742 0.302908 0.5
254 1 0.615259 0.296797 0.5
226 1 0.665685 0.30738 0.5
266 1 0.72171 0.302768 0.5
257 1 0.77255 0.306398 0.5
260 1 0.911922 0.274283 0.5
250 1 0.967586 0.283628 0.5
262 1 0.532786 0.343578 0.5
264 1 0.591969 0.346807 0.5
265 1 0.640585 0.353786 0.5
267 1 0.827719 0.311556 0.5
268 1 0.881262 0.317221 0.5
270 1 0.93199 0.320519 0.5
71 1 0.982949 0.330829 0.5
276 1 0.690252 0.349518 0.5
285 1 0.747514 0.351015 0.5
277 1 0.798785 0.35628 0.5
278 1 0.847754 0.359352 0.5
269 1 0.898035 0.367378 0.5
290 1 0.94788 0.368069 0.5
332 1 0.505744 0.715103 0.5
272 1 0.560755 0.393766 0.5
273 1 0.612618 0.397531 0.5
235 1 0.663023 0.397614 0.5
255 1 0.716708 0.394154 0.5
306 1 0.764358 0.403221 0.5
280 1 0.814485 0.403746 0.5
300 1 0.867208 0.412509 0.5
293 1 0.531021 0.436238 0.5
282 1 0.582837 0.439332 0.5
283 1 0.633956 0.444824 0.5
275 1 0.686806 0.449744 0.5
310 1 0.920548 0.415477 0.5
83 1 0.971288 0.414035 0.5
287 1 0.738539 0.44799 0.5
279 1 0.790167 0.450664 0.5
298 1 0.839619 0.458952 0.5
320 1 0.893172 0.463772 0.5
309 1 0.945785 0.459257 0.5
281 1 0.550524 0.480686 0.5
294 1 0.607419 0.488408 0.5
263 1 0.657294 0.496771 0.5
295 1 0.708488 0.496028 0.5
296 1 0.760561 0.493115 0.5
289 1 0.80941 0.51093 0.5
317 1 0.86101 0.508576 0.5
102 1 0.913316 0.510583 0.5
103 1 0.967732 0.516868 0.5
304 1 0.523563 0.526348 0.5
303 1 0.578217 0.534669 0.5
284 1 0.628487 0.540809 0.5
311 1 0.687048 0.542899 0.5
286 1 0.73603 0.549325 0.5
297 1 0.786837 0.556365 0.5
141 1 0.885461 0.557915 0.5
331 1 0.54952 0.574525 0.5
292 1 0.598395 0.585121 0.5
327 1 0.652032 0.587135 0.5
288 1 0.706035 0.592895 0.5
299 1 0.836977 0.550694 0.5
82 1 0.940904 0.561706 0.5
52 1 0.992308 0.234867 0.5
308 1 0.755249 0.598449 0.5
328 1 0.808016 0.601877 0.5
305 1 0.857526 0.604677 0.5
330 1 0.911239 0.604784 0.5
121 1 0.962984 0.609518 0.5
118 1 0.52007 0.620457 0.5
313 1 0.572959 0.62925 0.5
314 1 0.620522 0.627918 0.5
318 1 0.675984 0.636657 0.5
307 1 0.72586 0.647631 0.5
329 1 0.778096 0.645638 0.5
335 1 0.82929 0.650549 0.5
101 1 0.882079 0.650619 0.5
274 1 0.536734 0.66998 0.5
323 1 0.588128 0.68096 0.5
315 1 0.640348 0.680882 0.5
333 1 0.688923 0.685682 0.5
316 1 0.7537 0.697562 0.5
144 1 0.935099 0.654441 0.5
153 1 0.98795 0.663268 0.5
10 1 0.508613 0.0538123 0.5
149 1 0.558793 0.725972 0.5
302 1 0.608251 0.731602 0.5
336 1 0.804544 0.69564 0.5
131 1 0.855291 0.696532 0.5
359 1 0.907304 0.702044 0.5
312 1 0.657946 0.73195 0.5
321 1 0.71602 0.728381 0.5
322 1 0.776977 0.743672 0.5
347 1 0.830329 0.737928 0.5
319 1 0.881787 0.745842 0.5
338 1 0.958222 0.705076 0.5
179 1 0.522963 0.76374 0.5
160 1 0.580142 0.776902 0.5
334 1 0.631286 0.783352 0.5
324 1 0.683584 0.776941 0.5
345 1 0.735763 0.777357 0.5
325 1 0.78199 0.794891 0.5
339 1 0.834639 0.791086 0.5
349 1 0.884657 0.798055 0.5
340 1 0.973587 0.752894 0.5
209 1 0.98815 0.991441 0.5
180 1 0.550668 0.822668 0.5
170 1 0.600293 0.82688 0.5
344 1 0.653549 0.825199 0.5
326 1 0.7037 0.827381 0.5
400 1 0.938199 0.797353 0.5
352 1 0.513736 0.86224 0.5
343 1 0.568443 0.87186 0.5
346 1 0.757058 0.83761 0.5
365 1 0.8071 0.837137 0.5
355 1 0.857837 0.840738 0.5
389 1 0.911715 0.841706 0.5
337 1 0.963219 0.848013 0.5
353 1 0.625779 0.868032 0.5
363 1 0.678786 0.87372 0.5
354 1 0.729946 0.880564 0.5
366 1 0.779308 0.887779 0.5
379 1 0.836988 0.887741 0.5
387 1 0.88467 0.894901 0.5
398 1 0.936502 0.8935 0.5
382 1 0.534937 0.90911 0.5
372 1 0.591556 0.913959 0.5
362 1 0.643157 0.916343 0.5
364 1 0.701587 0.920381 0.5
356 1 0.751312 0.934195 0.5
369 1 0.80253 0.932106 0.5
111 1 0.99379 0.567956 0.5
392 1 0.503257 0.953752 0.5
383 1 0.563506 0.961228 0.5
373 1 0.619466 0.962431 0.5
375 1 0.67054 0.96695 0.5
358 1 0.852563 0.941239 0.5
378 1 0.909876 0.94277 0.5
388 1 0.960245 0.939184 0.5
357 1 0.722729 0.973227 0.5
348 1 0.772196 0.982407 0.5
376 1 0.825805 0.983021 0.5
217 1 0.880203 0.988563 0.5
191 1 0.987966 0.897203 0.5
91 1 0.99473 0.471239 0.5
380 1 0.993302 0.805786 0.5
223 1 0.500288 0.147896 0.5
