ITEM: TIMESTEP
100000
ITEM: NUMBER OF ATOMS
400
ITEM: BOX BOUNDS pp pp pp
0.0000000000000000e+00 2.8284271247461902e+01
0.0000000000000000e+00 2.8284271247461902e+01
-7.0710678118654757e-01 7.0710678118654757e-01
ITEM: ATOMS id type xs ys zs
322 1 0.12224 0.021159 0.5
244 1 0.16341 0.0174417 0.5
55 1 0.195326 0.0193162 0.5
362 1 0.236951 0.0068883 0.5
349 1 0.287937 0.00267493 0.5
140 1 0.489296 0.00228303 0.5
91 1 0.00275458 0.0328475 0.5
308 1 0.053313 0.0295216 0.5
282 1 0.451572 0.029591 0.5
82 1 0.0379897 0.0615981 0.5
4 1 0.080869 0.052809 0.5
78 1 0.114113 0.0627352 0.5
32 1 0.171597 0.0640907 0.5
28 1 0.203835 0.056212 0.5
275 1 0.383923 0.047979 0.5
68 1 0.430744 0.0589233 0.5
389 1 0.487282 0.0466795 0.5
323 1 0.234616 0.089885 0.5
36 1 0.268145 0.0776443 0.5
30 1 0.305217 0.0820309 0.5
100 1 0.356872 0.0709088 0.5
130 1 0.0687313 0.0949576 0.5
293 1 0.128643 0.0963814 0.5
2 1 0.281942 0.112574 0.5
319 1 0.365174 0.10949 0.5
177 1 0.425556 0.104519 0.5
299 1 0.467395 0.113834 0.5
66 1 0.0282515 0.129648 0.5
52 1 0.101211 0.125863 0.5
62 1 0.317289 0.116624 0.5
337 1 0.0592422 0.146935 0.5
263 1 0.202755 0.145134 0.5
243 1 0.233516 0.161155 0.5
388 1 0.375573 0.144353 0.5
26 1 0.0401816 0.18547 0.5
101 1 0.14071 0.185255 0.5
380 1 0.310672 0.181501 0.5
324 1 0.455015 0.172139 0.5
88 1 0.488901 0.182655 0.5
267 1 0.0735834 0.199749 0.5
145 1 0.202156 0.187405 0.5
94 1 0.364365 0.207687 0.5
3 1 0.455453 0.208127 0.5
394 1 0.0366144 0.223169 0.5
400 1 0.131486 0.223862 0.5
360 1 0.181243 0.21286 0.5
6 1 0.226024 0.212177 0.5
264 1 0.27762 0.213484 0.5
238 1 0.311227 0.223892 0.5
163 1 0.40994 0.212937 0.5
368 1 0.0670688 0.251495 0.5
61 1 0.261451 0.24851 0.5
261 1 0.437079 0.245091 0.5
223 1 0.47516 0.250525 0.5
335 1 0.0116767 0.260218 0.5
95 1 0.0434068 0.275168 0.5
247 1 0.098393 0.262389 0.5
193 1 0.163461 0.260143 0.5
141 1 0.222659 0.266519 0.5
128 1 0.330416 0.265894 0.5
19 1 0.366756 0.267043 0.5
165 1 0.259954 0.299595 0.5
75 1 0.299037 0.282443 0.5
281 1 0.449834 0.281451 0.5
180 1 0.482902 0.29305 0.5
195 1 0.181078 0.308422 0.5
99 1 0.33039 0.303565 0.5
54 1 0.365249 0.315886 0.5
333 1 0.0854477 0.331629 0.5
42 1 0.149282 0.329072 0.5
399 1 0.223022 0.348043 0.5
142 1 0.259081 0.34202 0.5
138 1 0.336311 0.339228 0.5
41 1 0.421978 0.340861 0.5
363 1 0.495615 0.336539 0.5
252 1 0.0156255 0.360133 0.5
296 1 0.068392 0.367997 0.5
131 1 0.159408 0.367747 0.5
84 1 0.293424 0.365337 0.5
357 1 0.365652 0.357323 0.5
97 1 0.329585 0.387911 0.5
301 1 0.379925 0.395284 0.5
273 1 0.44187 0.373647 0.5
379 1 0.476803 0.383546 0.5
352 1 0.0579806 0.417152 0.5
139 1 0.2023 0.403587 0.5
58 1 0.237777 0.399985 0.5
155 1 0.273863 0.39904 0.5
123 1 0.444846 0.414828 0.5
242 1 0.112763 0.428405 0.5
384 1 0.150333 0.438722 0.5
45 1 0.255764 0.438198 0.5
326 1 0.336644 0.419061 0.5
79 1 0.392283 0.435688 0.5
156 1 0.221258 0.463918 0.5
174 1 0.468896 0.442214 0.5
158 1 0.0772304 0.466491 0.5
367 1 0.182001 0.47438 0.5
11 1 0.285995 0.48834 0.5
336 1 0.328757 0.476694 0.5
202 1 0.369824 0.476847 0.5
382 1 0.453891 0.473274 0.5
346 1 0.00568404 0.50408 0.5
151 1 0.049206 0.498029 0.5
85 1 0.133138 0.493794 0.5
71 1 0.186495 0.510357 0.5
17 1 0.220914 0.50728 0.5
226 1 0.435015 0.508989 0.5
260 1 0.115596 0.531991 0.5
118 1 0.271756 0.533747 0.5
70 1 0.306629 0.533755 0.5
178 1 0.337439 0.515341 0.5
313 1 0.400064 0.533482 0.5
353 1 0.465285 0.527001 0.5
292 1 0.0363472 0.554911 0.5
306 1 0.185418 0.557997 0.5
393 1 0.365373 0.545403 0.5
398 1 0.0723613 0.560536 0.5
135 1 0.140518 0.565915 0.5
182 1 0.250156 0.562481 0.5
320 1 0.397837 0.570528 0.5
43 1 0.0269435 0.589404 0.5
40 1 0.1061 0.58926 0.5
312 1 0.199293 0.603543 0.5
327 1 0.279767 0.597376 0.5
67 1 0.444714 0.59598 0.5
154 1 0.00595204 0.622604 0.5
371 1 0.165888 0.626207 0.5
217 1 0.363231 0.608554 0.5
370 1 0.40564 0.606572 0.5
216 1 0.488218 0.613364 0.5
176 1 0.0488613 0.640711 0.5
171 1 0.089954 0.629748 0.5
108 1 0.125711 0.640817 0.5
207 1 0.283181 0.635243 0.5
329 1 0.418852 0.639512 0.5
98 1 0.49071 0.647545 0.5
225 1 0.231967 0.659573 0.5
200 1 0.314565 0.669233 0.5
372 1 0.352872 0.659438 0.5
46 1 0.126623 0.685613 0.5
318 1 0.393753 0.692532 0.5
215 1 0.43218 0.68188 0.5
227 1 0.467275 0.68537 0.5
110 1 0.028406 0.710014 0.5
160 1 0.0870975 0.699118 0.5
90 1 0.185505 0.702651 0.5
162 1 0.157005 0.726166 0.5
289 1 0.223197 0.730138 0.5
56 1 0.257748 0.722782 0.5
12 1 0.295556 0.730081 0.5
168 1 0.368499 0.727029 0.5
204 1 0.40679 0.72407 0.5
309 1 0.478559 0.730302 0.5
7 1 0.0391009 0.75666 0.5
375 1 0.118335 0.752776 0.5
355 1 0.267151 0.764139 0.5
14 1 0.428655 0.7555 0.5
395 1 0.0814145 0.770189 0.5
381 1 0.159073 0.774298 0.5
374 1 0.221086 0.780209 0.5
74 1 0.308912 0.777775 0.5
354 1 0.360009 0.772229 0.5
161 1 0.464154 0.778369 0.5
295 1 0.0285757 0.800724 0.5
183 1 0.129759 0.807672 0.5
34 1 0.275884 0.803401 0.5
359 1 0.416903 0.803505 0.5
9 1 0.198102 0.817249 0.5
59 1 0.296805 0.832488 0.5
271 1 0.0229453 0.83813 0.5
196 1 0.214406 0.854539 0.5
122 1 0.257165 0.852561 0.5
341 1 0.343669 0.844324 0.5
350 1 0.386187 0.842449 0.5
191 1 0.421749 0.840163 0.5
321 1 0.458716 0.839807 0.5
348 1 0.0352208 0.875564 0.5
253 1 0.161112 0.880299 0.5
87 1 0.396404 0.875729 0.5
153 1 0.00604413 0.90641 0.5
235 1 0.101736 0.89549 0.5
112 1 0.196255 0.889302 0.5
233 1 0.368551 0.898778 0.5
63 1 0.472731 0.891919 0.5
298 1 0.0537254 0.913946 0.5
203 1 0.243782 0.911461 0.5
181 1 0.320376 0.909855 0.5
192 1 0.0120855 0.943334 0.5
279 1 0.11789 0.931009 0.5
77 1 0.183356 0.945741 0.5
24 1 0.415939 0.930328 0.5
240 1 0.142463 0.970447 0.5
237 1 0.316899 0.962551 0.5
285 1 0.358691 0.95832 0.5
220 1 0.464313 0.963224 0.5
113 1 0.0565751 0.981541 0.5
37 1 0.106912 0.982063 0.5
187 1 0.181854 0.981592 0.5
184 1 0.257033 0.977814 0.5
234 1 0.374425 0.997408 0.5
211 1 0.410898 0.983322 0.5
262 1 0.574889 0.00401033 0.5
270 1 0.709723 0.0138836 0.5
50 1 0.800582 0.0135612 0.5
287 1 0.849581 0.00695138 0.5
27 1 0.909244 0.000998742 0.5
385 1 0.940785 0.0141127 0.5
259 1 0.543731 0.0423691 0.5
297 1 0.617387 0.0295712 0.5
208 1 0.740919 0.0328341 0.5
86 1 0.775035 0.0414193 0.5
351 1 0.657887 0.0582503 0.5
229 1 0.695039 0.0545479 0.5
328 1 0.83745 0.0552149 0.5
35 1 0.882341 0.0578069 0.5
25 1 0.926132 0.0621666 0.5
148 1 0.500212 0.0859859 0.5
80 1 0.611472 0.087181 0.5
325 1 0.830108 0.0917537 0.5
254 1 0.962208 0.0791934 0.5
125 1 0.996877 0.0829966 0.5
76 1 0.532762 0.0972554 0.5
274 1 0.571274 0.102093 0.5
120 1 0.632027 0.116187 0.5
373 1 0.717477 0.0946016 0.5
378 1 0.794764 0.115799 0.5
60 1 0.863804 0.0930358 0.5
159 1 0.904492 0.104646 0.5
230 1 0.971264 0.113044 0.5
117 1 0.597988 0.133262 0.5
302 1 0.672799 0.129638 0.5
345 1 0.703542 0.160641 0.5
331 1 0.766509 0.151727 0.5
15 1 0.80756 0.158655 0.5
137 1 0.852167 0.153279 0.5
31 1 0.918417 0.154726 0.5
132 1 0.963688 0.147585 0.5
340 1 0.519811 0.163286 0.5
365 1 0.585718 0.166652 0.5
39 1 0.889036 0.178692 0.5
104 1 0.988014 0.173918 0.5
8 1 0.543262 0.204994 0.5
10 1 0.651929 0.195357 0.5
209 1 0.747948 0.198831 0.5
221 1 0.82927 0.19989 0.5
167 1 0.862651 0.204978 0.5
284 1 0.639649 0.22965 0.5
338 1 0.675925 0.227382 0.5
119 1 0.785576 0.215216 0.5
115 1 0.970859 0.219079 0.5
236 1 0.523656 0.239146 0.5
93 1 0.732808 0.232747 0.5
23 1 0.873561 0.251549 0.5
222 1 0.921281 0.244785 0.5
147 1 0.549923 0.264068 0.5
175 1 0.613147 0.283877 0.5
13 1 0.652823 0.286099 0.5
294 1 0.763761 0.281167 0.5
198 1 0.798763 0.301797 0.5
219 1 0.832211 0.286643 0.5
266 1 0.902798 0.280824 0.5
343 1 0.940277 0.298224 0.5
212 1 0.988042 0.286904 0.5
305 1 0.541506 0.312376 0.5
291 1 0.731166 0.321196 0.5
111 1 0.873675 0.318874 0.5
136 1 0.574207 0.326622 0.5
72 1 0.941792 0.345491 0.5
344 1 0.521649 0.369804 0.5
356 1 0.651083 0.350346 0.5
107 1 0.689281 0.35555 0.5
364 1 0.791599 0.358239 0.5
315 1 0.911256 0.362545 0.5
105 1 0.977633 0.352221 0.5
47 1 0.562707 0.377447 0.5
376 1 0.606533 0.385568 0.5
179 1 0.640792 0.382022 0.5
116 1 0.767882 0.392524 0.5
199 1 0.852275 0.376979 0.5
256 1 0.932992 0.386728 0.5
201 1 0.536894 0.40701 0.5
5 1 0.699035 0.413038 0.5
57 1 0.798017 0.40335 0.5
114 1 0.878189 0.4073 0.5
109 1 0.597614 0.42215 0.5
361 1 0.632079 0.440048 0.5
386 1 0.663968 0.420397 0.5
170 1 0.741847 0.433277 0.5
300 1 0.946476 0.438504 0.5
366 1 0.52035 0.450651 0.5
197 1 0.597759 0.455344 0.5
246 1 0.71353 0.452859 0.5
311 1 0.789825 0.447385 0.5
286 1 0.880147 0.449042 0.5
143 1 0.99609 0.463153 0.5
239 1 0.623105 0.480768 0.5
358 1 0.6771 0.481953 0.5
73 1 0.846954 0.475529 0.5
245 1 0.893608 0.486083 0.5
102 1 0.577642 0.50245 0.5
392 1 0.71125 0.492833 0.5
173 1 0.863978 0.503932 0.5
303 1 0.685924 0.51971 0.5
16 1 0.730283 0.524 0.5
188 1 0.827728 0.52623 0.5
377 1 0.92931 0.519538 0.5
152 1 0.977764 0.532348 0.5
190 1 0.519101 0.542258 0.5
224 1 0.633252 0.552715 0.5
218 1 0.790435 0.535529 0.5
288 1 0.874089 0.546975 0.5
339 1 0.501575 0.570721 0.5
53 1 0.724059 0.57753 0.5
194 1 0.763297 0.570891 0.5
314 1 0.808331 0.57181 0.5
149 1 0.847196 0.5698 0.5
214 1 0.905474 0.57901 0.5
280 1 0.581198 0.588354 0.5
20 1 0.617714 0.591041 0.5
257 1 0.670013 0.585238 0.5
316 1 0.547765 0.615975 0.5
347 1 0.679261 0.62451 0.5
307 1 0.726879 0.621631 0.5
121 1 0.837917 0.616627 0.5
330 1 0.917464 0.615132 0.5
146 1 0.543419 0.648796 0.5
232 1 0.591515 0.648135 0.5
150 1 0.760123 0.641126 0.5
304 1 0.815914 0.64441 0.5
129 1 0.964503 0.628289 0.5
33 1 0.518362 0.671796 0.5
383 1 0.65587 0.65166 0.5
390 1 0.791538 0.670794 0.5
332 1 0.939092 0.663197 0.5
250 1 0.5784 0.680969 0.5
38 1 0.664182 0.690092 0.5
103 1 0.720493 0.675052 0.5
268 1 0.763863 0.694947 0.5
228 1 0.861288 0.678173 0.5
205 1 0.986244 0.684399 0.5
134 1 0.525221 0.710337 0.5
51 1 0.797164 0.713846 0.5
164 1 0.843641 0.710623 0.5
241 1 0.578684 0.725045 0.5
283 1 0.65844 0.730084 0.5
317 1 0.708321 0.727039 0.5
92 1 0.881424 0.734357 0.5
189 1 0.94682 0.742249 0.5
186 1 0.998786 0.738973 0.5
249 1 0.507555 0.754171 0.5
83 1 0.625841 0.765831 0.5
81 1 0.731958 0.755818 0.5
89 1 0.778154 0.751728 0.5
64 1 0.813873 0.756105 0.5
210 1 0.910742 0.767169 0.5
48 1 0.531695 0.780496 0.5
251 1 0.686671 0.7689 0.5
185 1 0.993991 0.774666 0.5
133 1 0.670331 0.800769 0.5
127 1 0.725541 0.801195 0.5
206 1 0.762497 0.79174 0.5
106 1 0.822365 0.80195 0.5
278 1 0.915077 0.807382 0.5
334 1 0.547691 0.817638 0.5
276 1 0.582409 0.824162 0.5
369 1 0.677224 0.83298 0.5
18 1 0.741935 0.83628 0.5
69 1 0.792673 0.835573 0.5
290 1 0.860946 0.819041 0.5
1 1 0.962124 0.823477 0.5
213 1 0.507482 0.852445 0.5
387 1 0.613069 0.856133 0.5
310 1 0.859104 0.8539 0.5
126 1 0.927321 0.854287 0.5
258 1 0.556321 0.870629 0.5
44 1 0.651583 0.864389 0.5
277 1 0.757966 0.870254 0.5
157 1 0.814789 0.861132 0.5
248 1 0.895557 0.873289 0.5
342 1 0.984486 0.865301 0.5
391 1 0.536661 0.90308 0.5
49 1 0.612919 0.902574 0.5
172 1 0.661236 0.903879 0.5
124 1 0.71042 0.927922 0.5
96 1 0.792784 0.914136 0.5
169 1 0.896964 0.923106 0.5
144 1 0.937958 0.908382 0.5
272 1 0.968785 0.924219 0.5
65 1 0.509559 0.947889 0.5
255 1 0.760208 0.940893 0.5
265 1 0.846229 0.93653 0.5
396 1 0.581287 0.95849 0.5
397 1 0.611675 0.975703 0.5
22 1 0.670944 0.961643 0.5
21 1 0.723633 0.962866 0.5
29 1 0.954682 0.958963 0.5
269 1 0.644146 0.985763 0.5
231 1 0.818946 0.980203 0.5
166 1 0.976196 0.992388 0.5
