ITEM: TIMESTEP
100000
ITEM: NUMBER OF ATOMS
400
ITEM: BOX BOUNDS pp pp pp
0.0000000000000000e+00 2.5819888974716111e+01
0.0000000000000000e+00 2.5819888974716111e+01
-6.4549722436790280e-01 6.4549722436790280e-01
ITEM: ATOMS id type xs ys zs
57 1 0.0601738 0.94139 0.5
305 1 0.0324178 0.18562 0.5
283 1 0.0910976 0.966154 0.5
17 1 0.483959 0.940893 0.5
323 1 0.453153 0.967432 0.5
398 1 0.0999857 0.91677 0.5
248 1 0.259576 0.774807 0.5
120 1 0.271739 0.953268 0.5
322 1 0.172221 0.914648 0.5
347 1 0.288794 0.122372 0.5
226 1 0.35558 0.269619 0.5
317 1 0.367942 0.845092 0.5
275 1 0.39792 0.932212 0.5
162 1 0.140628 0.888491 0.5
218 1 0.0108906 0.52311 0.5
295 1 0.249338 0.267707 0.5
271 1 0.422896 0.0705666 0.5
133 1 0.413664 0.882735 0.5
54 1 0.0939913 0.124328 0.5
147 1 0.491093 0.194504 0.5
348 1 0.209284 0.145695 0.5
350 1 0.4128 0.983873 0.5
188 1 0.157204 0.14999 0.5
290 1 0.338784 0.871277 0.5
119 1 0.0472628 0.462646 0.5
302 1 0.146878 0.11269 0.5
21 1 0.256076 0.887012 0.5
375 1 0.268126 0.211458 0.5
86 1 0.396272 0.180491 0.5
349 1 0.318976 0.191032 0.5
100 1 0.0985195 0.227932 0.5
286 1 0.228577 0.968334 0.5
156 1 0.471551 0.231737 0.5
108 1 0.034012 0.22645 0.5
284 1 0.0657941 0.623474 0.5
365 1 0.0739414 0.198743 0.5
212 1 0.239605 0.0179643 0.5
182 1 0.215723 0.104629 0.5
118 1 0.362953 0.0678096 0.5
237 1 0.338313 0.997442 0.5
74 1 0.454944 0.0500914 0.5
223 1 0.0250355 0.695041 0.5
373 1 0.0436451 0.264164 0.5
172 1 0.121732 0.258584 0.5
127 1 0.018329 0.11277 0.5
175 1 0.173329 0.977125 0.5
282 1 0.0565138 0.376486 0.5
384 1 0.187272 0.212303 0.5
128 1 0.114282 0.168601 0.5
276 1 0.358174 0.325145 0.5
165 1 0.449422 0.264258 0.5
2 1 0.140579 0.199566 0.5
69 1 0.489598 0.094863 0.5
303 1 0.239195 0.387598 0.5
92 1 0.231667 0.229717 0.5
326 1 0.293852 0.327412 0.5
301 1 0.44884 0.0141054 0.5
6 1 0.255138 0.0977024 0.5
269 1 0.240378 0.311537 0.5
32 1 0.390697 0.254836 0.5
76 1 0.432882 0.38432 0.5
170 1 0.461776 0.307985 0.5
294 1 0.0701141 0.889646 0.5
43 1 0.0229613 0.350229 0.5
20 1 0.285683 0.389996 0.5
132 1 0.226706 0.0547762 0.5
251 1 0.1966 0.0194557 0.5
51 1 0.413634 0.143337 0.5
190 1 0.406473 0.332581 0.5
274 1 0.0109441 0.482541 0.5
28 1 0.05756 0.985101 0.5
376 1 0.301498 0.282884 0.5
173 1 0.326643 0.358924 0.5
66 1 0.402068 0.290653 0.5
23 1 0.272245 0.839226 0.5
342 1 0.260319 0.347128 0.5
4 1 0.197375 0.299683 0.5
11 1 0.446594 0.191774 0.5
355 1 0.34493 0.400157 0.5
199 1 0.34927 0.160021 0.5
113 1 0.373776 0.453043 0.5
292 1 0.245633 0.519834 0.5
362 1 0.0285602 0.903833 0.5
75 1 0.185659 0.42433 0.5
131 1 0.207508 0.50768 0.5
88 1 0.387282 0.410952 0.5
150 1 0.4469 0.54805 0.5
281 1 0.0358623 0.411293 0.5
344 1 0.318522 0.429024 0.5
164 1 0.155412 0.39811 0.5
181 1 0.27807 0.537346 0.5
216 1 0.471669 0.443176 0.5
253 1 0.323385 0.948775 0.5
392 1 0.0825554 0.275284 0.5
327 1 0.341487 0.220983 0.5
102 1 0.113636 0.857325 0.5
210 1 0.212626 0.353513 0.5
357 1 0.169266 0.476628 0.5
116 1 0.266027 0.483942 0.5
252 1 0.262486 0.43064 0.5
389 1 0.47939 0.356447 0.5
224 1 0.475031 0.398926 0.5
318 1 0.430363 0.22894 0.5
243 1 0.0273525 0.606436 0.5
390 1 0.110955 0.520742 0.5
219 1 0.112509 0.637642 0.5
386 1 0.203773 0.562619 0.5
160 1 0.408044 0.590151 0.5
368 1 0.466304 0.505838 0.5
82 1 0.0472316 0.503058 0.5
25 1 0.0999904 0.59896 0.5
149 1 0.124478 0.566984 0.5
213 1 0.47316 0.574685 0.5
337 1 0.396819 0.636123 0.5
227 1 0.418717 0.828814 0.5
10 1 0.0662046 0.569488 0.5
277 1 0.214215 0.630197 0.5
90 1 0.338264 0.123773 0.5
250 1 0.442205 0.627919 0.5
187 1 0.136724 0.960105 0.5
340 1 0.302574 0.0155719 0.5
64 1 0.165649 0.558062 0.5
24 1 0.292799 0.58009 0.5
167 1 0.227026 0.473921 0.5
241 1 0.323667 0.537023 0.5
289 1 0.328747 0.474606 0.5
47 1 0.0380971 0.809572 0.5
208 1 0.148769 0.702914 0.5
143 1 0.467641 0.720832 0.5
259 1 0.439919 0.111001 0.5
370 1 0.224324 0.667594 0.5
135 1 0.179316 0.615597 0.5
217 1 0.0861367 0.723768 0.5
136 1 0.369285 0.541653 0.5
206 1 0.393715 0.676514 0.5
314 1 0.493154 0.781925 0.5
201 1 0.132562 0.326329 0.5
399 1 0.0732946 0.663755 0.5
65 1 0.114845 0.685651 0.5
312 1 0.293732 0.699408 0.5
246 1 0.341194 0.695147 0.5
89 1 0.249419 0.572906 0.5
300 1 0.379392 0.0105379 0.5
278 1 0.070888 0.341789 0.5
85 1 0.293447 0.875863 0.5
98 1 0.26806 0.730956 0.5
134 1 0.136292 0.809037 0.5
154 1 0.416571 0.462144 0.5
193 1 0.382641 0.503649 0.5
3 1 0.0759511 0.841176 0.5
244 1 0.471306 0.862815 0.5
106 1 0.0771488 0.783614 0.5
41 1 0.270655 0.67065 0.5
341 1 0.153404 0.651838 0.5
62 1 0.281464 0.618184 0.5
111 1 0.424805 0.70232 0.5
239 1 0.404398 0.770567 0.5
195 1 0.0366175 0.85835 0.5
211 1 0.309528 0.819414 0.5
186 1 0.344106 0.798789 0.5
273 1 0.204591 0.887972 0.5
336 1 0.331294 0.598873 0.5
179 1 0.13167 0.0772643 0.5
12 1 0.384471 0.805089 0.5
242 1 0.0462305 0.308942 0.5
7 1 0.443259 0.7786 0.5
325 1 0.492371 0.620245 0.5
81 1 0.337597 0.0375168 0.5
197 1 0.17254 0.755708 0.5
351 1 0.213908 0.754493 0.5
215 1 0.233858 0.834809 0.5
238 1 0.286141 0.917347 0.5
151 1 0.32848 0.646617 0.5
315 1 0.128471 0.751685 0.5
123 1 0.447764 0.906335 0.5
84 1 0.375314 0.117742 0.5
363 1 0.157595 0.840838 0.5
29 1 0.345804 0.75 0.5
329 1 0.126084 0.00387593 0.5
26 1 0.468008 0.157408 0.5
91 1 0.171909 0.0567997 0.5
138 1 0.485347 0.822945 0.5
53 1 0.086884 0.0115929 0.5
299 1 0.121415 0.418826 0.5
33 1 0.193608 0.701764 0.5
209 1 0.487979 0.0157971 0.5
40 1 0.0733149 0.0556514 0.5
174 1 0.00772491 0.936721 0.5
77 1 0.0204622 0.564326 0.5
383 1 0.00303834 0.836103 0.5
93 1 0.495643 0.669518 0.5
264 1 0.49457 0.262686 0.5
99 1 0.00318528 0.723991 0.5
228 1 0.975563 0.887159 0.5
166 1 0.52726 0.723622 0.5
205 1 0.980661 0.626439 0.5
391 1 0.789674 0.0516883 0.5
397 1 0.968273 0.504372 0.5
48 1 0.88909 0.0020569 0.5
321 1 0.918681 0.180387 0.5
183 1 0.862504 0.821986 0.5
196 1 0.536708 0.987933 0.5
225 1 0.674106 0.0137441 0.5
258 1 0.699621 0.940904 0.5
220 1 0.865901 0.0897341 0.5
110 1 0.661967 0.507155 0.5
396 1 0.992585 0.0833393 0.5
9 1 0.528205 0.431106 0.5
39 1 0.745888 0.970425 0.5
58 1 0.80612 0.17333 0.5
387 1 0.952305 0.327252 0.5
36 1 0.56834 0.0327789 0.5
129 1 0.57726 0.885154 0.5
382 1 0.583956 0.645392 0.5
72 1 0.65468 0.105488 0.5
157 1 0.702037 0.977801 0.5
126 1 0.606315 0.0141224 0.5
236 1 0.958425 0.257887 0.5
367 1 0.699389 0.900339 0.5
101 1 0.589117 0.968928 0.5
189 1 0.720407 0.391069 0.5
35 1 0.582361 0.150573 0.5
49 1 0.674249 0.149932 0.5
178 1 0.630581 0.0522054 0.5
261 1 0.718921 0.0786195 0.5
168 1 0.731889 0.00430152 0.5
247 1 0.720344 0.177317 0.5
343 1 0.539132 0.508945 0.5
297 1 0.562361 0.819503 0.5
109 1 0.69192 0.0499881 0.5
378 1 0.732683 0.142544 0.5
379 1 0.552865 0.125986 0.5
319 1 0.556626 0.0770639 0.5
94 1 0.875299 0.278929 0.5
114 1 0.702219 0.119333 0.5
176 1 0.818764 0.138957 0.5
107 1 0.584454 0.368735 0.5
171 1 0.990322 0.00789131 0.5
235 1 0.775807 0.198318 0.5
381 1 0.887915 0.351858 0.5
354 1 0.798542 0.236246 0.5
249 1 0.838874 0.277721 0.5
112 1 0.77277 0.143918 0.5
320 1 0.577956 0.275257 0.5
5 1 0.616414 0.108596 0.5
296 1 0.601516 0.845593 0.5
313 1 0.50185 0.135481 0.5
192 1 0.691859 0.25623 0.5
198 1 0.632295 0.163678 0.5
52 1 0.745522 0.265199 0.5
293 1 0.913903 0.259262 0.5
280 1 0.75691 0.322075 0.5
31 1 0.856046 0.949628 0.5
16 1 0.607808 0.201441 0.5
180 1 0.85703 0.378445 0.5
260 1 0.779207 0.283926 0.5
78 1 0.845769 0.236831 0.5
155 1 0.835521 0.341317 0.5
262 1 0.925356 0.426429 0.5
56 1 0.760701 0.424189 0.5
332 1 0.526322 0.171881 0.5
55 1 0.669435 0.203058 0.5
19 1 0.530501 0.236092 0.5
333 1 0.712458 0.288603 0.5
46 1 0.788849 0.395467 0.5
130 1 0.97246 0.463597 0.5
358 1 0.902053 0.395575 0.5
146 1 0.571953 0.215077 0.5
285 1 0.641421 0.246994 0.5
37 1 0.841491 0.494809 0.5
330 1 0.731093 0.448068 0.5
8 1 0.733063 0.2243 0.5
310 1 0.62904 0.290566 0.5
73 1 0.796521 0.58277 0.5
240 1 0.993018 0.402133 0.5
338 1 0.853124 0.448179 0.5
15 1 0.841778 0.0324884 0.5
45 1 0.610263 0.330558 0.5
257 1 0.662088 0.374755 0.5
393 1 0.652166 0.412026 0.5
316 1 0.713861 0.341207 0.5
22 1 0.923512 0.48062 0.5
356 1 0.728821 0.542478 0.5
60 1 0.696336 0.423364 0.5
263 1 0.651347 0.332806 0.5
42 1 0.722492 0.61081 0.5
366 1 0.775453 0.360281 0.5
222 1 0.691655 0.473728 0.5
279 1 0.87922 0.476891 0.5
125 1 0.621559 0.369355 0.5
122 1 0.771017 0.556083 0.5
311 1 0.871397 0.150916 0.5
1 1 0.641782 0.5954 0.5
268 1 0.8625 0.596688 0.5
148 1 0.662473 0.547542 0.5
140 1 0.878889 0.517477 0.5
361 1 0.964817 0.93939 0.5
144 1 0.844069 0.533248 0.5
141 1 0.566463 0.612602 0.5
266 1 0.716491 0.691039 0.5
159 1 0.842475 0.186085 0.5
70 1 0.56501 0.421199 0.5
229 1 0.899293 0.212518 0.5
191 1 0.627752 0.482627 0.5
158 1 0.706104 0.843272 0.5
14 1 0.759996 0.511136 0.5
328 1 0.806879 0.807355 0.5
309 1 0.868783 0.679513 0.5
200 1 0.677498 0.729992 0.5
203 1 0.618992 0.625433 0.5
255 1 0.829722 0.567712 0.5
104 1 0.802944 0.525779 0.5
245 1 0.909833 0.553026 0.5
221 1 0.796197 0.643093 0.5
117 1 0.973421 0.563399 0.5
339 1 0.540804 0.272296 0.5
395 1 0.921578 0.304984 0.5
115 1 0.555434 0.310148 0.5
83 1 0.600226 0.692696 0.5
298 1 0.674275 0.61825 0.5
270 1 0.758018 0.723689 0.5
267 1 0.707071 0.653891 0.5
234 1 0.909746 0.671074 0.5
359 1 0.720141 0.745019 0.5
96 1 0.917969 0.793418 0.5
374 1 0.840343 0.637552 0.5
380 1 0.927645 0.591513 0.5
288 1 0.98003 0.782658 0.5
18 1 0.66672 0.292669 0.5
233 1 0.627232 0.557942 0.5
105 1 0.832672 0.845898 0.5
304 1 0.72076 0.810154 0.5
103 1 0.880387 0.858101 0.5
34 1 0.81385 0.700385 0.5
202 1 0.583304 0.501526 0.5
353 1 0.752729 0.643192 0.5
360 1 0.931669 0.91443 0.5
61 1 0.891 0.716338 0.5
124 1 0.640231 0.719362 0.5
194 1 0.842469 0.73348 0.5
95 1 0.798691 0.735227 0.5
44 1 0.946664 0.716694 0.5
67 1 0.860382 0.896368 0.5
306 1 0.93998 0.756323 0.5
265 1 0.639903 0.655935 0.5
345 1 0.691712 0.777008 0.5
59 1 0.669792 0.873746 0.5
71 1 0.827438 0.771949 0.5
63 1 0.842248 0.988853 0.5
79 1 0.540253 0.868471 0.5
369 1 0.608415 0.74815 0.5
97 1 0.633077 0.896421 0.5
372 1 0.57307 0.763845 0.5
230 1 0.64098 0.820337 0.5
185 1 0.892847 0.934163 0.5
377 1 0.926223 0.0827659 0.5
324 1 0.56042 0.471502 0.5
161 1 0.767161 0.901777 0.5
13 1 0.96124 0.845836 0.5
385 1 0.975927 0.691042 0.5
87 1 0.651683 0.453532 0.5
142 1 0.598797 0.593189 0.5
30 1 0.956755 0.195167 0.5
207 1 0.516066 0.320868 0.5
184 1 0.765898 0.815792 0.5
231 1 0.873803 0.767476 0.5
232 1 0.907517 0.884937 0.5
335 1 0.824489 0.887503 0.5
308 1 0.63685 0.780619 0.5
27 1 0.5926 0.79581 0.5
352 1 0.790309 0.853945 0.5
214 1 0.797793 0.96121 0.5
177 1 0.825486 0.927417 0.5
346 1 0.945389 0.38729 0.5
291 1 0.78732 0.771721 0.5
137 1 0.557896 0.925818 0.5
152 1 0.924145 0.841866 0.5
254 1 0.889614 0.0442236 0.5
139 1 0.781341 0.00589714 0.5
153 1 0.529394 0.636404 0.5
307 1 0.66822 0.683836 0.5
68 1 0.73071 0.874142 0.5
80 1 0.616103 0.935203 0.5
121 1 0.632801 0.988801 0.5
163 1 0.898681 0.115863 0.5
388 1 0.815646 0.0768698 0.5
204 1 0.995611 0.21874 0.5
50 1 0.525602 0.762174 0.5
394 1 0.572027 0.560059 0.5
287 1 0.525287 0.902996 0.5
145 1 0.516772 0.386125 0.5
169 1 0.935767 0.0252842 0.5
256 1 0.988287 0.335951 0.5
334 1 1.00061 0.152302 0.5
38 1 0.523597 0.0476859 0.5
272 1 0.938666 0.12812 0.5
371 1 0.971386 0.0474678 0.5
400 1 0.988321 0.968662 0.5
331 1 0.51524 0.563123 0.5
364 1 0.929323 0.983776 0.5
