ITEM: TIMESTEP
100000
ITEM: NUMBER OF ATOMS
400
ITEM: BOX BOUNDS pp pp pp
0.0000000000000000e+00 2.2360679774997898e+01
0.0000000000000000e+00 2.2360679774997898e+01
-5.5901699437494745e-01 5.5901699437494745e-01
ITEM: ATOMS id type xs ys zs
378 1 0.240373 0.0729305 0.5
351 1 0.376072 0.0673604 0.5
112 1 0.334062 0.937335 0.5
218 1 0.47345 0.959867 0.5
200 1 0.0456815 0.529678 0.5
3 1 0.435783 0.0851977 0.5
253 1 0.452679 0.680797 0.5
388 1 0.20974 0.988182 0.5
203 1 0.0980136 0.123906 0.5
242 1 0.175366 0.921752 0.5
124 1 0.343301 0.0356171 0.5
52 1 0.435138 0.00283109 0.5
194 1 0.415104 0.0453011 0.5
144 1 0.483615 0.817047 0.5
323 1 0.072516 0.806574 0.5
196 1 0.22175 0.0303474 0.5
260 1 0.285035 0.0788999 0.5
162 1 0.383344 0.00929523 0.5
185 1 0.470769 0.435842 0.5
154 1 0.0616083 0.0877095 0.5
297 1 0.144486 0.0473341 0.5
310 1 0.449216 0.125325 0.5
380 1 0.497273 0.3776 0.5
57 1 0.470373 0.236609 0.5
170 1 0.0851765 0.287427 0.5
397 1 0.0981232 0.246948 0.5
24 1 0.213695 0.133173 0.5
249 1 0.123576 0.161213 0.5
324 1 0.0230545 0.933598 0.5
393 1 0.415496 0.179704 0.5
350 1 0.0426917 0.0337699 0.5
293 1 0.0838949 0.190852 0.5
186 1 0.333717 0.993292 0.5
328 1 0.394269 0.106599 0.5
367 1 0.062695 0.970342 0.5
354 1 0.0263982 0.11521 0.5
74 1 0.0169214 0.438564 0.5
339 1 0.189363 0.0663718 0.5
357 1 0.0559841 0.223054 0.5
294 1 0.0272402 0.187942 0.5
141 1 0.327901 0.0781571 0.5
56 1 0.345463 0.178652 0.5
40 1 0.435986 0.272099 0.5
330 1 0.106512 0.889747 0.5
261 1 0.236522 0.22571 0.5
11 1 0.17181 0.143263 0.5
168 1 0.162616 0.191456 0.5
121 1 0.157688 0.97888 0.5
159 1 0.415214 0.769241 0.5
327 1 0.171322 0.240056 0.5
66 1 0.480599 0.299758 0.5
319 1 0.150146 0.100939 0.5
302 1 0.307018 0.156086 0.5
131 1 0.346483 0.122717 0.5
165 1 0.408104 0.236273 0.5
113 1 0.377683 0.20713 0.5
43 1 0.453511 0.724355 0.5
93 1 0.427281 0.951618 0.5
120 1 0.0556832 0.415436 0.5
147 1 0.100026 0.349893 0.5
352 1 0.38759 0.276211 0.5
83 1 0.412686 0.320606 0.5
42 1 0.124341 0.208706 0.5
171 1 0.210803 0.263444 0.5
197 1 0.258775 0.130703 0.5
304 1 0.218512 0.18618 0.5
298 1 0.30202 0.201562 0.5
32 1 0.346709 0.239115 0.5
164 1 0.478152 0.868679 0.5
107 1 0.474937 0.550248 0.5
116 1 0.149105 0.366486 0.5
14 1 0.29677 0.312201 0.5
33 1 0.282302 0.23953 0.5
262 1 0.26025 0.277877 0.5
277 1 0.279735 0.362981 0.5
374 1 0.0580245 0.146394 0.5
111 1 0.0553936 0.36512 0.5
68 1 0.12821 0.279375 0.5
85 1 0.263407 0.181069 0.5
279 1 0.17519 0.284921 0.5
349 1 0.346731 0.304558 0.5
313 1 0.468495 0.767708 0.5
252 1 0.0548101 0.319165 0.5
207 1 0.194934 0.377534 0.5
316 1 0.188924 0.333787 0.5
62 1 0.402807 0.371575 0.5
296 1 0.0130754 0.393975 0.5
199 1 0.178894 0.575779 0.5
289 1 0.185408 0.464797 0.5
60 1 0.314736 0.273704 0.5
169 1 0.292665 0.0355122 0.5
224 1 0.105479 0.39965 0.5
342 1 0.230789 0.479761 0.5
240 1 0.307805 0.503999 0.5
122 1 0.308226 0.431581 0.5
53 1 0.212812 0.418874 0.5
381 1 0.260761 0.412372 0.5
59 1 0.380656 0.416335 0.5
87 1 0.145257 0.441128 0.5
287 1 0.341027 0.532664 0.5
255 1 0.271081 0.465825 0.5
103 1 0.234279 0.360175 0.5
81 1 0.337315 0.470485 0.5
309 1 0.320796 0.346588 0.5
334 1 0.0107952 0.487893 0.5
160 1 0.184957 0.522828 0.5
251 1 0.200129 0.699284 0.5
130 1 0.341826 0.399518 0.5
163 1 0.443625 0.897958 0.5
202 1 0.229198 0.928469 0.5
246 1 0.386272 0.147204 0.5
17 1 0.106725 0.50119 0.5
241 1 0.0977615 0.452181 0.5
192 1 0.278055 0.614255 0.5
187 1 0.42804 0.438204 0.5
286 1 0.357273 0.573398 0.5
247 1 0.37471 0.499002 0.5
27 1 0.0583636 0.470128 0.5
305 1 0.0830801 0.737858 0.5
362 1 0.258099 0.529518 0.5
271 1 0.373629 0.338649 0.5
292 1 0.153068 0.493876 0.5
49 1 0.227442 0.566325 0.5
336 1 0.177528 0.744553 0.5
44 1 0.314948 0.663101 0.5
288 1 0.328521 0.620681 0.5
50 1 0.426286 0.485418 0.5
291 1 0.492864 0.654609 0.5
245 1 0.439285 0.847964 0.5
137 1 0.0169175 0.0712197 0.5
398 1 0.189325 0.649469 0.5
26 1 0.230241 0.657103 0.5
148 1 0.306584 0.580019 0.5
318 1 0.431615 0.561848 0.5
55 1 0.369575 0.747703 0.5
64 1 0.442202 0.390863 0.5
211 1 0.040993 0.577373 0.5
12 1 0.0780632 0.618374 0.5
344 1 0.203815 0.609845 0.5
195 1 0.389748 0.542898 0.5
179 1 0.454437 0.599047 0.5
390 1 0.0991033 0.554185 0.5
215 1 0.0964056 0.690866 0.5
35 1 0.412265 0.724687 0.5
365 1 0.389462 0.602754 0.5
345 1 0.418632 0.637127 0.5
109 1 0.488723 0.912204 0.5
30 1 0.0301727 0.667563 0.5
4 1 0.122415 0.589674 0.5
399 1 0.145654 0.544922 0.5
314 1 0.376836 0.696941 0.5
89 1 0.275872 0.692017 0.5
331 1 0.478496 0.192092 0.5
360 1 0.460118 0.339335 0.5
383 1 0.128539 0.819327 0.5
278 1 0.124201 0.640462 0.5
104 1 0.158308 0.786456 0.5
213 1 0.143477 0.684437 0.5
308 1 0.369111 0.643898 0.5
134 1 0.396768 0.830813 0.5
208 1 0.362682 0.863335 0.5
222 1 0.218723 0.768921 0.5
41 1 0.208309 0.885901 0.5
385 1 0.278259 0.758694 0.5
173 1 0.480018 0.504244 0.5
400 1 0.028093 0.618428 0.5
392 1 0.268808 0.814091 0.5
155 1 0.179979 0.851696 0.5
90 1 0.328132 0.711625 0.5
394 1 0.042693 0.75855 0.5
22 1 0.0482657 0.708558 0.5
172 1 0.323107 0.754857 0.5
384 1 0.133459 0.728882 0.5
166 1 0.138565 0.859236 0.5
201 1 0.277063 0.915714 0.5
285 1 0.318967 0.826641 0.5
212 1 0.395228 0.895872 0.5
37 1 0.111009 0.773582 0.5
65 1 0.0935603 0.847806 0.5
119 1 0.466325 0.0357549 0.5
135 1 0.322039 0.890498 0.5
167 1 0.192374 0.811804 0.5
303 1 0.355046 0.789853 0.5
272 1 0.259555 0.971871 0.5
1 1 0.231112 0.846663 0.5
282 1 0.280105 0.854372 0.5
151 1 0.38391 0.945504 0.5
210 1 0.0869039 0.048317 0.5
184 1 0.00549393 0.301765 0.5
86 1 0.0426627 0.880196 0.5
92 1 0.178513 0.0202379 0.5
353 1 0.121996 0.944506 0.5
63 1 0.0690595 0.913349 0.5
275 1 0.112332 0.991595 0.5
214 1 0.440647 0.803776 0.5
175 1 0.0303232 0.260022 0.5
232 1 0.01346 0.849362 0.5
5 1 0.502776 0.14451 0.5
333 1 0.0199766 0.797505 0.5
266 1 0.0141642 0.979069 0.5
235 1 0.483888 0.0867924 0.5
317 1 0.713167 0.00609442 0.5
274 1 0.81872 0.174239 0.5
101 1 0.909569 0.970194 0.5
364 1 0.641718 0.0761049 0.5
220 1 0.56647 0.842727 0.5
264 1 0.692154 0.051222 0.5
19 1 0.735466 0.166638 0.5
206 1 0.714386 0.911247 0.5
115 1 0.948496 0.153742 0.5
82 1 0.929813 0.068957 0.5
136 1 0.740187 0.0660785 0.5
376 1 0.763873 0.999082 0.5
248 1 0.797539 0.0953881 0.5
311 1 0.863715 0.140024 0.5
67 1 0.834837 0.0593223 0.5
269 1 0.745852 0.118611 0.5
146 1 0.675856 0.280308 0.5
221 1 0.81626 0.0131445 0.5
157 1 0.903805 0.167976 0.5
126 1 0.945785 0.215676 0.5
259 1 0.574348 0.275479 0.5
395 1 0.869934 0.729226 0.5
217 1 0.609542 0.984233 0.5
99 1 0.683314 0.194274 0.5
189 1 0.742497 0.305758 0.5
13 1 0.971469 0.0828379 0.5
295 1 0.612547 0.249441 0.5
219 1 0.786322 0.226948 0.5
100 1 0.732332 0.208581 0.5
341 1 0.522673 0.41642 0.5
84 1 0.526731 0.33706 0.5
9 1 0.693958 0.106236 0.5
236 1 0.616694 0.339298 0.5
343 1 0.726881 0.250679 0.5
389 1 0.704846 0.337521 0.5
102 1 0.770045 0.268031 0.5
355 1 0.757755 0.349508 0.5
372 1 0.862807 0.199054 0.5
396 1 0.962827 0.257589 0.5
156 1 0.516541 0.245161 0.5
138 1 0.630392 0.28975 0.5
284 1 0.661328 0.322733 0.5
223 1 0.83304 0.241979 0.5
161 1 0.6429 0.182703 0.5
110 1 0.602676 0.20355 0.5
174 1 0.527547 0.289111 0.5
204 1 0.795247 0.387906 0.5
8 1 0.814687 0.478741 0.5
10 1 0.515452 0.95765 0.5
387 1 0.974704 0.459651 0.5
258 1 0.750772 0.399412 0.5
79 1 0.599322 0.380746 0.5
315 1 0.873504 0.258753 0.5
158 1 0.913788 0.395699 0.5
15 1 0.962591 0.611938 0.5
348 1 0.573038 0.327246 0.5
254 1 0.55057 0.383575 0.5
301 1 0.781453 0.443675 0.5
140 1 0.883822 0.431008 0.5
28 1 0.844215 0.317537 0.5
273 1 0.953081 0.737972 0.5
306 1 0.725484 0.475299 0.5
216 1 0.662811 0.370558 0.5
329 1 0.825754 0.358226 0.5
198 1 0.968178 0.384871 0.5
117 1 0.52549 0.186687 0.5
356 1 0.62984 0.462067 0.5
191 1 0.69743 0.438071 0.5
177 1 0.854719 0.392613 0.5
139 1 0.883342 0.30005 0.5
61 1 0.902444 0.220757 0.5
373 1 0.508956 0.600891 0.5
2 1 0.645172 0.41835 0.5
108 1 0.645086 0.516096 0.5
321 1 0.737918 0.521394 0.5
70 1 0.708095 0.384037 0.5
366 1 0.535514 0.111932 0.5
132 1 0.92264 0.271685 0.5
368 1 0.893643 0.350796 0.5
281 1 0.560412 0.598764 0.5
58 1 0.552402 0.454565 0.5
25 1 0.59318 0.424059 0.5
118 1 0.66758 0.564285 0.5
54 1 0.732063 0.612272 0.5
377 1 0.854913 0.56253 0.5
244 1 0.793573 0.326261 0.5
361 1 0.944607 0.693337 0.5
129 1 0.682546 0.605504 0.5
283 1 0.594624 0.541023 0.5
231 1 0.766657 0.486277 0.5
20 1 0.604856 0.582982 0.5
34 1 0.585554 0.490445 0.5
98 1 0.936158 0.509253 0.5
386 1 0.675801 0.484895 0.5
149 1 0.857726 0.476215 0.5
123 1 0.975533 0.523267 0.5
257 1 0.519298 0.549935 0.5
233 1 0.567002 0.686978 0.5
97 1 0.760147 0.57286 0.5
379 1 0.844246 0.520809 0.5
229 1 0.498729 0.702469 0.5
16 1 0.908037 0.476379 0.5
375 1 0.631315 0.618663 0.5
205 1 0.672372 0.711514 0.5
72 1 0.788017 0.536053 0.5
363 1 0.930049 0.320663 0.5
188 1 0.582241 0.637032 0.5
142 1 0.610285 0.674175 0.5
300 1 0.689867 0.524726 0.5
226 1 0.897741 0.547321 0.5
69 1 0.831534 0.628425 0.5
382 1 0.913117 0.610507 0.5
346 1 0.937649 0.434053 0.5
335 1 0.834028 0.430038 0.5
80 1 0.980462 0.126154 0.5
239 1 0.698735 0.657963 0.5
143 1 0.90941 0.746391 0.5
71 1 0.934653 0.572652 0.5
76 1 0.669943 0.15054 0.5
176 1 0.533709 0.636535 0.5
209 1 0.702227 0.773424 0.5
250 1 0.811355 0.577135 0.5
227 1 0.88969 0.78924 0.5
178 1 0.57359 0.138755 0.5
322 1 0.560778 0.781822 0.5
105 1 0.59916 0.761461 0.5
307 1 0.774819 0.622896 0.5
320 1 0.539417 0.507767 0.5
150 1 0.575767 0.0984507 0.5
125 1 0.987307 0.174944 0.5
299 1 0.62457 0.12088 0.5
73 1 0.506926 0.00955314 0.5
114 1 0.87881 0.64499 0.5
96 1 0.869966 0.604235 0.5
94 1 0.834727 0.698964 0.5
237 1 0.581778 0.0416147 0.5
190 1 0.841923 0.10104 0.5
31 1 0.542857 0.911373 0.5
370 1 0.616656 0.720061 0.5
312 1 0.788782 0.721776 0.5
128 1 0.51193 0.471622 0.5
276 1 0.980728 0.884484 0.5
183 1 0.643898 0.758568 0.5
332 1 0.794573 0.664701 0.5
391 1 0.934636 0.78728 0.5
228 1 0.847736 0.769521 0.5
48 1 0.832489 0.819503 0.5
243 1 0.95026 0.834378 0.5
234 1 0.552789 0.221399 0.5
6 1 0.600496 0.809756 0.5
225 1 0.883737 0.832353 0.5
91 1 0.81655 0.945781 0.5
256 1 0.627957 0.0331452 0.5
29 1 0.98515 0.653604 0.5
268 1 0.721639 0.716677 0.5
182 1 0.752998 0.682267 0.5
127 1 0.783663 0.80595 0.5
88 1 0.8439 0.87899 0.5
153 1 0.897376 0.925078 0.5
267 1 0.897772 0.695737 0.5
45 1 0.65636 0.804991 0.5
36 1 0.804593 0.766788 0.5
7 1 0.679476 0.863922 0.5
358 1 0.852297 0.919053 0.5
238 1 0.96659 0.939617 0.5
51 1 0.627288 0.84285 0.5
18 1 0.695651 0.820609 0.5
145 1 0.738001 0.802732 0.5
326 1 0.759523 0.88666 0.5
337 1 0.919664 0.655529 0.5
230 1 0.753781 0.750911 0.5
152 1 0.756322 0.942799 0.5
106 1 0.889885 0.0169138 0.5
263 1 0.916803 0.878229 0.5
133 1 0.549096 0.00808781 0.5
21 1 0.522549 0.84226 0.5
338 1 0.512544 0.772727 0.5
46 1 0.727174 0.856831 0.5
23 1 0.712658 0.957375 0.5
371 1 0.78572 0.851988 0.5
38 1 0.846777 0.979982 0.5
265 1 0.998913 0.22366 0.5
181 1 0.656423 0.911976 0.5
77 1 0.610509 0.918919 0.5
39 1 0.88267 0.0795514 0.5
193 1 0.933531 0.0256941 0.5
359 1 0.528036 0.0704255 0.5
340 1 0.576749 0.954172 0.5
325 1 0.578662 0.886028 0.5
369 1 0.652995 0.990612 0.5
95 1 0.801705 0.905933 0.5
347 1 0.788698 0.0476811 0.5
290 1 0.778029 0.150066 0.5
270 1 0.919381 0.114005 0.5
280 1 0.662577 0.239239 0.5
180 1 0.98737 0.023134 0.5
78 1 0.988934 0.575556 0.5
47 1 0.992391 0.719416 0.5
75 1 0.995729 0.351972 0.5
