ITEM: TIMESTEP
100000
ITEM: NUMBER OF ATOMS
400
ITEM: BOX BOUNDS pp pp pp
0.0000000000000000e+00 2.3904572186687872e+01
0.0000000000000000e+00 2.3904572186687872e+01
-5.9761430466719678e-01 5.9761430466719678e-01
ITEM: ATOMS id type xs ys zs
146 1 0.0345646 0.0168419 0.5
107 1 0.0856387 0.00134917 0.5
243 1 0.126329 0.0095527 0.5
158 1 0.169996 0.00842492 0.5
270 1 0.239325 0.006345 0.5
134 1 0.450467 0.00948419 0.5
168 1 0.0248353 0.0551482 0.5
34 1 0.104502 0.043273 0.5
201 1 0.145904 0.0531073 0.5
385 1 0.199071 0.0391173 0.5
87 1 0.247159 0.0540394 0.5
62 1 0.302181 0.0474361 0.5
70 1 0.345148 0.0413925 0.5
162 1 0.385807 0.0475763 0.5
159 1 0.214581 0.0807252 0.5
25 1 0.461978 0.0584404 0.5
294 1 0.0664515 0.103497 0.5
300 1 0.105081 0.0840128 0.5
121 1 0.156629 0.0985382 0.5
2 1 0.281624 0.0874242 0.5
222 1 0.326236 0.0937068 0.5
352 1 0.386164 0.0941075 0.5
309 1 0.468381 0.101319 0.5
23 1 0.0131723 0.123857 0.5
138 1 0.136179 0.13233 0.5
241 1 0.196131 0.135756 0.5
314 1 0.243716 0.111709 0.5
380 1 0.280103 0.137243 0.5
93 1 0.0471102 0.145424 0.5
199 1 0.0948234 0.140621 0.5
395 1 0.231749 0.159762 0.5
51 1 0.331995 0.139311 0.5
112 1 0.406224 0.148488 0.5
394 1 0.456013 0.141812 0.5
291 1 0.0671417 0.184061 0.5
37 1 0.159087 0.172451 0.5
38 1 0.209335 0.193974 0.5
231 1 0.309672 0.173566 0.5
320 1 0.362992 0.184927 0.5
99 1 0.439861 0.183914 0.5
94 1 0.0356198 0.218725 0.5
306 1 0.125431 0.207345 0.5
106 1 0.180256 0.221413 0.5
31 1 0.259569 0.197062 0.5
344 1 0.303301 0.21487 0.5
32 1 0.48425 0.195478 0.5
207 1 0.105675 0.242084 0.5
178 1 0.227544 0.232636 0.5
182 1 0.28183 0.248986 0.5
96 1 0.373591 0.224481 0.5
244 1 0.435524 0.229735 0.5
345 1 0.16825 0.260273 0.5
335 1 0.3309 0.250815 0.5
261 1 0.414375 0.263568 0.5
49 1 0.46018 0.273548 0.5
18 1 0.0451207 0.297664 0.5
105 1 0.102476 0.285413 0.5
340 1 0.197415 0.289736 0.5
52 1 0.235977 0.279022 0.5
233 1 0.314075 0.287585 0.5
331 1 0.387428 0.291908 0.5
400 1 0.489022 0.305095 0.5
360 1 0.0208505 0.33248 0.5
328 1 0.416887 0.327304 0.5
198 1 0.0966261 0.353658 0.5
63 1 0.140405 0.346678 0.5
59 1 0.18116 0.345482 0.5
398 1 0.238591 0.339197 0.5
6 1 0.28478 0.340076 0.5
274 1 0.333887 0.336135 0.5
44 1 0.373728 0.341503 0.5
175 1 0.0519599 0.368915 0.5
71 1 0.207525 0.38271 0.5
151 1 0.316493 0.372901 0.5
68 1 0.365686 0.38239 0.5
283 1 0.440611 0.382357 0.5
265 1 0.477682 0.364354 0.5
101 1 0.0265943 0.404099 0.5
184 1 0.0750174 0.405561 0.5
361 1 0.115531 0.390247 0.5
89 1 0.161677 0.392147 0.5
19 1 0.24698 0.398699 0.5
141 1 0.331667 0.413255 0.5
47 1 0.405024 0.405225 0.5
393 1 0.0521896 0.443646 0.5
252 1 0.0999813 0.439878 0.5
378 1 0.137105 0.423841 0.5
379 1 0.182412 0.434375 0.5
13 1 0.290011 0.442036 0.5
211 1 0.369561 0.431289 0.5
368 1 0.46917 0.416977 0.5
310 1 0.0171743 0.465866 0.5
249 1 0.227809 0.456006 0.5
125 1 0.409661 0.444456 0.5
348 1 0.451856 0.455277 0.5
213 1 0.085686 0.499143 0.5
277 1 0.146304 0.495048 0.5
297 1 0.251801 0.491796 0.5
225 1 0.321973 0.473669 0.5
153 1 0.369394 0.476368 0.5
179 1 0.416788 0.499824 0.5
150 1 0.0155713 0.508264 0.5
339 1 0.190319 0.506598 0.5
326 1 0.310693 0.519347 0.5
321 1 0.37062 0.520262 0.5
302 1 0.48458 0.51302 0.5
152 1 0.0476236 0.53224 0.5
192 1 0.10808 0.542373 0.5
278 1 0.190878 0.549043 0.5
209 1 0.236533 0.528499 0.5
181 1 0.275547 0.547315 0.5
229 1 0.404692 0.549732 0.5
92 1 0.449067 0.537165 0.5
3 1 0.074496 0.575497 0.5
67 1 0.302823 0.57903 0.5
191 1 0.345558 0.564133 0.5
45 1 0.481818 0.577786 0.5
269 1 0.0323556 0.591608 0.5
349 1 0.110283 0.601657 0.5
203 1 0.14959 0.585873 0.5
61 1 0.227882 0.600849 0.5
341 1 0.351282 0.607981 0.5
171 1 0.396963 0.608238 0.5
288 1 0.431618 0.588067 0.5
4 1 0.0782713 0.631122 0.5
259 1 0.189565 0.612282 0.5
133 1 0.2634 0.626379 0.5
21 1 0.314917 0.624682 0.5
194 1 0.443312 0.628538 0.5
254 1 0.484214 0.628763 0.5
389 1 0.00631941 0.660176 0.5
232 1 0.125331 0.64806 0.5
267 1 0.329841 0.662343 0.5
161 1 0.370538 0.655276 0.5
327 1 0.415816 0.660751 0.5
264 1 0.048932 0.669925 0.5
290 1 0.0971683 0.68187 0.5
84 1 0.195349 0.678214 0.5
104 1 0.234757 0.667633 0.5
206 1 0.477644 0.672013 0.5
83 1 0.0190201 0.708399 0.5
26 1 0.142745 0.69768 0.5
130 1 0.293697 0.709569 0.5
143 1 0.33558 0.702153 0.5
10 1 0.383262 0.697771 0.5
85 1 0.426272 0.700279 0.5
216 1 0.105743 0.729659 0.5
223 1 0.204474 0.740687 0.5
390 1 0.245508 0.730548 0.5
224 1 0.41979 0.743277 0.5
35 1 0.00495811 0.769658 0.5
88 1 0.121528 0.77168 0.5
81 1 0.162233 0.759493 0.5
333 1 0.310504 0.753861 0.5
190 1 0.357871 0.774321 0.5
128 1 0.470807 0.771058 0.5
332 1 0.0465406 0.78269 0.5
82 1 0.165096 0.803145 0.5
323 1 0.231314 0.791036 0.5
350 1 0.279788 0.783928 0.5
366 1 0.417509 0.781571 0.5
75 1 0.0358517 0.822571 0.5
183 1 0.0842867 0.811119 0.5
377 1 0.223999 0.832001 0.5
196 1 0.338187 0.809702 0.5
210 1 0.409175 0.823809 0.5
374 1 0.455973 0.812749 0.5
363 1 0.00152484 0.844159 0.5
103 1 0.0658484 0.854083 0.5
11 1 0.284442 0.83784 0.5
42 1 0.323292 0.851662 0.5
166 1 0.37029 0.85769 0.5
57 1 0.459294 0.85732 0.5
381 1 0.00770017 0.886558 0.5
307 1 0.137269 0.869778 0.5
122 1 0.176955 0.869693 0.5
238 1 0.226189 0.872993 0.5
136 1 0.274072 0.878942 0.5
22 1 0.408839 0.871567 0.5
382 1 0.0499818 0.908837 0.5
215 1 0.0953982 0.893818 0.5
355 1 0.184685 0.908845 0.5
86 1 0.246041 0.912546 0.5
384 1 0.361167 0.914382 0.5
234 1 0.413134 0.913178 0.5
74 1 0.451864 0.902904 0.5
324 1 0.138928 0.929009 0.5
369 1 0.290554 0.922926 0.5
353 1 0.0260157 0.959598 0.5
239 1 0.0668432 0.959105 0.5
176 1 0.113837 0.967832 0.5
204 1 0.160971 0.96756 0.5
251 1 0.249012 0.955411 0.5
258 1 0.331893 0.969075 0.5
20 1 0.382401 0.959047 0.5
276 1 0.426321 0.962518 0.5
170 1 0.48003 0.949642 0.5
293 1 0.203776 0.981121 0.5
383 1 0.283158 0.976492 0.5
329 1 0.484878 0.989152 0.5
156 1 0.516739 0.0147416 0.5
236 1 0.560356 0.0174348 0.5
315 1 0.634239 0.00431967 0.5
157 1 0.682066 0.0120452 0.5
147 1 0.761129 0.0170908 0.5
253 1 0.890214 7.90257e-05 0.5
108 1 0.615878 0.0536371 0.5
14 1 0.719912 0.0431552 0.5
372 1 0.819855 0.0433467 0.5
145 1 0.880131 0.0443569 0.5
286 1 0.934909 0.0466891 0.5
217 1 0.975944 0.0479156 0.5
144 1 0.502069 0.0565777 0.5
235 1 0.570574 0.0585407 0.5
311 1 0.656046 0.0566649 0.5
318 1 0.693 0.0759402 0.5
160 1 0.762908 0.0578131 0.5
227 1 0.846719 0.0762062 0.5
39 1 0.53282 0.0863346 0.5
53 1 0.622038 0.10075 0.5
148 1 0.735755 0.0998781 0.5
24 1 0.865259 0.110882 0.5
322 1 0.902619 0.087259 0.5
195 1 0.941509 0.108376 0.5
149 1 0.988267 0.0901585 0.5
220 1 0.507435 0.121585 0.5
330 1 0.548711 0.126761 0.5
268 1 0.663702 0.119835 0.5
27 1 0.823395 0.119052 0.5
187 1 0.602809 0.154285 0.5
364 1 0.671515 0.157435 0.5
115 1 0.710631 0.140336 0.5
33 1 0.852654 0.15376 0.5
98 1 0.911369 0.139276 0.5
338 1 0.524315 0.168928 0.5
308 1 0.623779 0.193224 0.5
370 1 0.694263 0.190997 0.5
137 1 0.749595 0.170666 0.5
16 1 0.95621 0.171354 0.5
109 1 0.998476 0.178281 0.5
230 1 0.525745 0.221089 0.5
200 1 0.574834 0.196873 0.5
76 1 0.740111 0.209013 0.5
282 1 0.830643 0.221743 0.5
54 1 0.869693 0.19476 0.5
127 1 0.952892 0.211454 0.5
29 1 0.640361 0.234005 0.5
373 1 0.702575 0.234927 0.5
64 1 0.900388 0.249414 0.5
272 1 0.986705 0.23377 0.5
316 1 0.502289 0.262171 0.5
255 1 0.559761 0.264591 0.5
273 1 0.61997 0.268821 0.5
15 1 0.662009 0.274489 0.5
120 1 0.751019 0.258608 0.5
301 1 0.803373 0.263655 0.5
43 1 0.859332 0.272959 0.5
116 1 0.947628 0.25168 0.5
163 1 0.704526 0.278172 0.5
208 1 0.764446 0.299661 0.5
271 1 0.824714 0.299636 0.5
17 1 0.926761 0.291866 0.5
346 1 0.537516 0.316138 0.5
180 1 0.591145 0.310963 0.5
240 1 0.636876 0.30776 0.5
359 1 0.889055 0.306939 0.5
77 1 0.973268 0.310141 0.5
124 1 0.567758 0.345443 0.5
218 1 0.704334 0.339378 0.5
396 1 0.759725 0.354556 0.5
66 1 0.803084 0.335322 0.5
343 1 0.850434 0.343951 0.5
58 1 0.890913 0.35365 0.5
129 1 0.523176 0.36705 0.5
305 1 0.583324 0.384741 0.5
113 1 0.625685 0.361312 0.5
97 1 0.665042 0.361347 0.5
72 1 0.719003 0.380898 0.5
221 1 0.812201 0.387939 0.5
303 1 0.937295 0.380398 0.5
375 1 0.543577 0.411592 0.5
298 1 0.664714 0.403685 0.5
135 1 0.760948 0.40947 0.5
212 1 0.904373 0.405868 0.5
186 1 0.977879 0.396079 0.5
126 1 0.506737 0.431712 0.5
193 1 0.581602 0.441196 0.5
167 1 0.628013 0.422328 0.5
90 1 0.707739 0.419703 0.5
250 1 0.954609 0.436887 0.5
317 1 0.663079 0.467677 0.5
263 1 0.742355 0.45821 0.5
155 1 0.79551 0.447389 0.5
365 1 0.842011 0.445834 0.5
95 1 0.89462 0.450379 0.5
388 1 0.511264 0.472364 0.5
36 1 0.55117 0.480341 0.5
30 1 0.606559 0.490688 0.5
371 1 0.842523 0.488514 0.5
260 1 0.97182 0.488689 0.5
56 1 0.687729 0.526322 0.5
354 1 0.746583 0.510917 0.5
319 1 0.80192 0.511671 0.5
289 1 0.891595 0.511559 0.5
262 1 0.524091 0.548814 0.5
119 1 0.57428 0.53557 0.5
386 1 0.642592 0.527864 0.5
387 1 0.778662 0.545961 0.5
392 1 0.863291 0.543511 0.5
102 1 0.910826 0.547077 0.5
111 1 0.948847 0.53271 0.5
226 1 0.996831 0.555249 0.5
80 1 0.568006 0.576629 0.5
197 1 0.621766 0.564958 0.5
246 1 0.962834 0.582107 0.5
313 1 0.611215 0.604368 0.5
174 1 0.653026 0.591381 0.5
65 1 0.695373 0.604028 0.5
295 1 0.738316 0.585644 0.5
248 1 0.790441 0.587049 0.5
73 1 0.887674 0.595288 0.5
257 1 0.527592 0.637915 0.5
69 1 0.56962 0.631308 0.5
367 1 0.763407 0.626367 0.5
118 1 0.814299 0.621805 0.5
165 1 0.874099 0.637665 0.5
325 1 0.998183 0.614663 0.5
132 1 0.612345 0.655376 0.5
40 1 0.660249 0.650433 0.5
285 1 0.714616 0.648115 0.5
123 1 0.778753 0.665215 0.5
281 1 0.825293 0.663402 0.5
169 1 0.943837 0.644785 0.5
280 1 0.529467 0.68147 0.5
256 1 0.574273 0.673524 0.5
189 1 0.696089 0.693231 0.5
351 1 0.863798 0.677296 0.5
154 1 0.962967 0.686163 0.5
312 1 0.570108 0.71344 0.5
337 1 0.656396 0.711021 0.5
55 1 0.800757 0.696721 0.5
91 1 0.925946 0.712942 0.5
9 1 0.515883 0.745975 0.5
202 1 0.612871 0.723788 0.5
100 1 0.681602 0.746781 0.5
48 1 0.729942 0.749431 0.5
172 1 0.780334 0.7373 0.5
5 1 0.843012 0.734896 0.5
287 1 0.882888 0.722623 0.5
304 1 0.967289 0.728087 0.5
78 1 0.570249 0.754556 0.5
358 1 0.641623 0.753638 0.5
275 1 0.874623 0.76799 0.5
292 1 0.922224 0.765232 0.5
117 1 0.963324 0.773618 0.5
205 1 0.517904 0.785908 0.5
279 1 0.608172 0.782017 0.5
185 1 0.724703 0.790986 0.5
296 1 0.764465 0.782004 0.5
357 1 0.810126 0.779057 0.5
140 1 0.565947 0.814751 0.5
114 1 0.640218 0.818894 0.5
214 1 0.686697 0.817365 0.5
356 1 0.739568 0.827755 0.5
266 1 0.797313 0.822595 0.5
347 1 0.838454 0.817812 0.5
342 1 0.888254 0.82538 0.5
41 1 0.940875 0.809787 0.5
242 1 0.982541 0.809664 0.5
399 1 0.917325 0.859588 0.5
362 1 0.511018 0.862485 0.5
228 1 0.54592 0.88164 0.5
173 1 0.604904 0.865947 0.5
1 1 0.669253 0.871369 0.5
79 1 0.71971 0.872352 0.5
336 1 0.761317 0.878801 0.5
334 1 0.819625 0.873111 0.5
7 1 0.959909 0.883489 0.5
284 1 0.510595 0.909706 0.5
299 1 0.645816 0.901529 0.5
131 1 0.694045 0.911215 0.5
397 1 0.892105 0.893591 0.5
28 1 0.56297 0.930245 0.5
142 1 0.766078 0.938977 0.5
391 1 0.814915 0.934107 0.5
219 1 0.857702 0.916927 0.5
50 1 0.941527 0.929627 0.5
12 1 0.987771 0.938458 0.5
139 1 0.61379 0.946374 0.5
110 1 0.653793 0.963232 0.5
60 1 0.709798 0.958938 0.5
188 1 0.85612 0.964709 0.5
164 1 0.910527 0.963815 0.5
8 1 0.543823 0.980306 0.5
247 1 0.59112 0.984532 0.5
376 1 0.725666 0.996869 0.5
177 1 0.780812 0.981526 0.5
245 1 0.822628 0.987579 0.5
237 1 0.943454 0.997984 0.5
46 1 0.98438 0.987016 0.5
