ITEM: TIMESTEP
100000
ITEM: NUMBER OF ATOMS
400
ITEM: BOX BOUNDS pp pp pp
0.0000000000000000e+00 2.0000000000000000e+01
0.0000000000000000e+00 2.0000000000000000e+01
-5.0000000000000000e-01 5.0000000000000000e-01
ITEM: ATOMS id type xs ys zs
59 1 0.0215127 0.0169504 0.5
119 1 0.072178 0.012222 0.5
259 1 0.217824 0.0210301 0.5
371 1 0.312226 0.0264216 0.5
202 1 0.357285 0.0106339 0.5
390 1 0.444937 0.00593459 0.5
37 1 0.109992 0.0483628 0.5
253 1 0.160301 0.0343269 0.5
126 1 0.259321 0.0446194 0.5
20 1 0.345502 0.0586714 0.5
358 1 0.397453 0.0366292 0.5
92 1 0.440502 0.0623125 0.5
22 1 0.483769 0.0406206 0.5
320 1 0.0158216 0.0692427 0.5
173 1 0.0652144 0.072119 0.5
133 1 0.157411 0.0872478 0.5
186 1 0.203219 0.0669564 0.5
315 1 0.249472 0.0946857 0.5
49 1 0.297608 0.0780931 0.5
262 1 0.38911 0.0893103 0.5
94 1 0.481611 0.0885565 0.5
225 1 0.0399208 0.118738 0.5
41 1 0.10579 0.102809 0.5
108 1 0.205828 0.12974 0.5
300 1 0.299446 0.124523 0.5
218 1 0.342953 0.108577 0.5
203 1 0.436406 0.111687 0.5
326 1 0.0752556 0.151133 0.5
208 1 0.158302 0.137222 0.5
362 1 0.25239 0.143137 0.5
318 1 0.337028 0.158194 0.5
130 1 0.388448 0.137487 0.5
293 1 0.432465 0.162973 0.5
118 1 0.484834 0.158734 0.5
268 1 0.0271882 0.172585 0.5
159 1 0.11882 0.170134 0.5
174 1 0.195112 0.17873 0.5
385 1 0.288708 0.177776 0.5
252 1 0.383441 0.188238 0.5
309 1 0.0144564 0.22581 0.5
266 1 0.064652 0.208552 0.5
284 1 0.11488 0.226076 0.5
172 1 0.16123 0.212501 0.5
205 1 0.205977 0.232121 0.5
97 1 0.246198 0.201317 0.5
357 1 0.330403 0.208428 0.5
81 1 0.426873 0.230426 0.5
88 1 0.480024 0.205464 0.5
158 1 0.0712245 0.2579 0.5
255 1 0.158224 0.263834 0.5
64 1 0.245707 0.257562 0.5
13 1 0.292856 0.239235 0.5
274 1 0.37404 0.243896 0.5
56 1 0.470101 0.260293 0.5
1 1 0.0148075 0.277347 0.5
241 1 0.11102 0.285388 0.5
25 1 0.199834 0.291002 0.5
206 1 0.290052 0.29587 0.5
307 1 0.333182 0.269826 0.5
290 1 0.413726 0.284453 0.5
28 1 0.0180579 0.328767 0.5
117 1 0.0667832 0.305383 0.5
234 1 0.156467 0.315054 0.5
391 1 0.244787 0.315554 0.5
183 1 0.342339 0.327053 0.5
292 1 0.455979 0.309986 0.5
229 1 0.0611234 0.352189 0.5
38 1 0.11271 0.342073 0.5
364 1 0.208416 0.348328 0.5
380 1 0.300329 0.351816 0.5
17 1 0.386804 0.345756 0.5
192 1 0.437411 0.355175 0.5
246 1 0.497493 0.346091 0.5
100 1 0.00248645 0.383019 0.5
136 1 0.0483889 0.39845 0.5
4 1 0.0958477 0.393429 0.5
325 1 0.158563 0.366972 0.5
68 1 0.202381 0.397578 0.5
162 1 0.253618 0.378871 0.5
135 1 0.341682 0.381419 0.5
27 1 0.396869 0.398284 0.5
44 1 0.140417 0.413449 0.5
139 1 0.291067 0.409026 0.5
319 1 0.36109 0.428782 0.5
387 1 0.444366 0.411193 0.5
73 1 0.494108 0.409457 0.5
164 1 0.034227 0.450571 0.5
400 1 0.0835538 0.440729 0.5
338 1 0.129839 0.464554 0.5
261 1 0.17743 0.44524 0.5
66 1 0.236374 0.435336 0.5
314 1 0.322569 0.456759 0.5
67 1 0.412538 0.451045 0.5
122 1 0.459826 0.464718 0.5
257 1 0.0711291 0.487921 0.5
86 1 0.181203 0.493643 0.5
39 1 0.229462 0.486123 0.5
224 1 0.274302 0.470949 0.5
103 1 0.372695 0.479368 0.5
36 1 0.0249184 0.520254 0.5
352 1 0.113278 0.517205 0.5
189 1 0.217019 0.532465 0.5
397 1 0.269414 0.5243 0.5
215 1 0.31581 0.522429 0.5
47 1 0.41651 0.501765 0.5
209 1 0.466104 0.511494 0.5
346 1 0.0703751 0.544404 0.5
233 1 0.160429 0.542457 0.5
301 1 0.37669 0.545428 0.5
8 1 0.426796 0.551473 0.5
383 1 0.00794115 0.571427 0.5
365 1 0.0645344 0.596814 0.5
194 1 0.118086 0.572445 0.5
35 1 0.199089 0.576676 0.5
395 1 0.247316 0.590218 0.5
399 1 0.296108 0.567295 0.5
313 1 0.349104 0.582624 0.5
58 1 0.408114 0.596214 0.5
89 1 0.46687 0.577437 0.5
381 1 0.0189606 0.621154 0.5
109 1 0.111107 0.621718 0.5
98 1 0.157306 0.612227 0.5
152 1 0.214123 0.627723 0.5
166 1 0.300399 0.616614 0.5
53 1 0.449454 0.626884 0.5
63 1 0.0600633 0.64876 0.5
378 1 0.176938 0.657468 0.5
289 1 0.267148 0.650313 0.5
376 1 0.35527 0.633741 0.5
341 1 0.405303 0.648194 0.5
72 1 0.494222 0.649263 0.5
370 1 0.0122759 0.68202 0.5
61 1 0.0858796 0.689436 0.5
294 1 0.125654 0.669175 0.5
250 1 0.225175 0.674996 0.5
180 1 0.311234 0.669315 0.5
171 1 0.39436 0.696007 0.5
62 1 0.446933 0.676642 0.5
386 1 0.492529 0.69725 0.5
120 1 0.0481347 0.719313 0.5
297 1 0.169265 0.711435 0.5
188 1 0.222272 0.722212 0.5
213 1 0.266621 0.701222 0.5
272 1 0.347625 0.700087 0.5
275 1 0.444588 0.730674 0.5
75 1 0.0920108 0.764254 0.5
221 1 0.126247 0.734491 0.5
193 1 0.2947 0.740338 0.5
264 1 0.347035 0.753662 0.5
29 1 0.398109 0.74667 0.5
57 1 0.48446 0.762045 0.5
327 1 0.0405564 0.772646 0.5
140 1 0.133057 0.794489 0.5
343 1 0.188674 0.771349 0.5
282 1 0.236273 0.767938 0.5
298 1 0.296198 0.79458 0.5
50 1 0.386829 0.794457 0.5
306 1 0.439253 0.781345 0.5
168 1 0.0344285 0.821063 0.5
353 1 0.0874357 0.812585 0.5
96 1 0.205971 0.814998 0.5
161 1 0.345765 0.824753 0.5
31 1 0.422241 0.827792 0.5
78 1 0.483701 0.814945 0.5
160 1 0.0702226 0.865699 0.5
104 1 0.115733 0.852504 0.5
211 1 0.165144 0.8455 0.5
85 1 0.239956 0.852303 0.5
279 1 0.287503 0.839589 0.5
276 1 0.383658 0.8563 0.5
198 1 0.460929 0.857032 0.5
51 1 0.0220074 0.878822 0.5
330 1 0.19846 0.876713 0.5
303 1 0.278705 0.892684 0.5
308 1 0.322955 0.873226 0.5
16 1 0.417179 0.891339 0.5
243 1 0.0559627 0.912743 0.5
231 1 0.120623 0.906376 0.5
247 1 0.232073 0.910491 0.5
242 1 0.321703 0.922513 0.5
285 1 0.370565 0.903981 0.5
227 1 0.461638 0.909522 0.5
334 1 0.00350328 0.934948 0.5
291 1 0.0864953 0.951337 0.5
219 1 0.137306 0.951046 0.5
60 1 0.18227 0.934503 0.5
377 1 0.224139 0.959414 0.5
128 1 0.270466 0.939334 0.5
295 1 0.361846 0.956922 0.5
254 1 0.408198 0.941008 0.5
317 1 0.455615 0.957651 0.5
310 1 0.0425149 0.971878 0.5
143 1 0.117051 0.998265 0.5
302 1 0.177502 0.982433 0.5
121 1 0.269257 0.994221 0.5
142 1 0.314369 0.973089 0.5
82 1 0.400067 0.98864 0.5
181 1 0.491975 0.991633 0.5
79 1 0.532916 0.0202941 0.5
323 1 0.580671 0.00572571 0.5
42 1 0.670438 0.0160822 0.5
360 1 0.764043 0.024667 0.5
137 1 0.823744 0.00292914 0.5
271 1 0.874266 0.0237504 0.5
114 1 0.929856 0.0233291 0.5
132 1 0.573191 0.0614545 0.5
91 1 0.629494 0.03934 0.5
182 1 0.717472 0.04308 0.5
237 1 0.805056 0.0516583 0.5
396 1 0.850591 0.0645191 0.5
151 1 0.976541 0.0377082 0.5
398 1 0.526941 0.0749191 0.5
351 1 0.61747 0.0879007 0.5
5 1 0.668531 0.0668983 0.5
222 1 0.757338 0.071172 0.5
361 1 0.799964 0.0968302 0.5
12 1 0.906756 0.0709104 0.5
195 1 0.962301 0.0948506 0.5
382 1 0.567503 0.107484 0.5
299 1 0.663388 0.121257 0.5
239 1 0.711442 0.10035 0.5
321 1 0.755856 0.120696 0.5
33 1 0.85069 0.120373 0.5
258 1 0.901374 0.122971 0.5
348 1 0.99453 0.130373 0.5
163 1 0.52859 0.135012 0.5
273 1 0.567979 0.162727 0.5
345 1 0.609586 0.134655 0.5
184 1 0.725182 0.155898 0.5
251 1 0.805564 0.146451 0.5
232 1 0.945994 0.141974 0.5
375 1 0.523072 0.185323 0.5
217 1 0.613978 0.181585 0.5
99 1 0.677722 0.167544 0.5
336 1 0.761954 0.184288 0.5
165 1 0.851243 0.170155 0.5
245 1 0.906312 0.173932 0.5
146 1 0.967718 0.189524 0.5
106 1 0.557952 0.217044 0.5
265 1 0.654556 0.209136 0.5
372 1 0.714127 0.208107 0.5
116 1 0.816285 0.207197 0.5
6 1 0.868378 0.222363 0.5
204 1 0.928088 0.215181 0.5
77 1 0.517967 0.239445 0.5
187 1 0.562726 0.263992 0.5
216 1 0.60955 0.233424 0.5
2 1 0.687148 0.250408 0.5
355 1 0.773696 0.236881 0.5
349 1 0.823203 0.259538 0.5
185 1 0.922843 0.264361 0.5
322 1 0.967222 0.245288 0.5
342 1 0.506307 0.29535 0.5
373 1 0.636241 0.276322 0.5
240 1 0.732708 0.26865 0.5
46 1 0.782826 0.288901 0.5
344 1 0.865356 0.287929 0.5
333 1 0.970263 0.294786 0.5
197 1 0.546278 0.3272 0.5
90 1 0.588811 0.308169 0.5
201 1 0.675205 0.311045 0.5
347 1 0.731057 0.318138 0.5
178 1 0.821814 0.318024 0.5
32 1 0.927784 0.315225 0.5
105 1 0.584847 0.365789 0.5
260 1 0.630235 0.340077 0.5
76 1 0.674072 0.365657 0.5
11 1 0.774809 0.338457 0.5
190 1 0.815296 0.365267 0.5
305 1 0.874172 0.34021 0.5
328 1 0.916289 0.366663 0.5
281 1 0.961264 0.351869 0.5
354 1 0.534762 0.384986 0.5
220 1 0.626278 0.395565 0.5
324 1 0.728413 0.370515 0.5
331 1 0.779114 0.398024 0.5
329 1 0.871471 0.389081 0.5
337 1 0.576792 0.412084 0.5
287 1 0.667849 0.427838 0.5
212 1 0.723113 0.420991 0.5
175 1 0.828201 0.409247 0.5
70 1 0.899888 0.427146 0.5
199 1 0.953754 0.405064 0.5
270 1 0.532631 0.4352 0.5
304 1 0.573414 0.4634 0.5
127 1 0.616341 0.444362 0.5
226 1 0.77174 0.447763 0.5
102 1 0.845685 0.453256 0.5
228 1 0.941733 0.455013 0.5
138 1 0.989597 0.435263 0.5
112 1 0.509545 0.480159 0.5
24 1 0.606446 0.499992 0.5
170 1 0.655732 0.487299 0.5
87 1 0.703124 0.47363 0.5
125 1 0.755614 0.499151 0.5
269 1 0.807988 0.48177 0.5
93 1 0.891036 0.476218 0.5
379 1 0.98449 0.485243 0.5
145 1 0.559107 0.513399 0.5
339 1 0.70533 0.523995 0.5
110 1 0.848086 0.510528 0.5
113 1 0.895397 0.5292 0.5
248 1 0.937714 0.503683 0.5
249 1 0.511592 0.536083 0.5
311 1 0.595966 0.557781 0.5
34 1 0.641879 0.546872 0.5
369 1 0.751637 0.549449 0.5
71 1 0.802243 0.533554 0.5
374 1 0.850196 0.560527 0.5
43 1 0.978391 0.533692 0.5
223 1 0.552611 0.581057 0.5
191 1 0.644794 0.595686 0.5
30 1 0.685855 0.568757 0.5
7 1 0.753528 0.598862 0.5
124 1 0.79919 0.581144 0.5
200 1 0.894129 0.584347 0.5
83 1 0.938791 0.569614 0.5
256 1 0.50857 0.604122 0.5
196 1 0.553794 0.629081 0.5
359 1 0.598237 0.607021 0.5
154 1 0.689209 0.619056 0.5
179 1 0.836005 0.611482 0.5
101 1 0.926165 0.619887 0.5
107 1 0.97339 0.605201 0.5
176 1 0.586173 0.665329 0.5
280 1 0.632063 0.643923 0.5
115 1 0.724711 0.654051 0.5
389 1 0.786698 0.636607 0.5
283 1 0.831275 0.660362 0.5
335 1 0.880799 0.637188 0.5
15 1 0.920287 0.664274 0.5
19 1 0.972135 0.653192 0.5
157 1 0.535127 0.673688 0.5
9 1 0.62649 0.693587 0.5
393 1 0.677877 0.668011 0.5
210 1 0.779649 0.689569 0.5
45 1 0.872009 0.689043 0.5
312 1 0.534517 0.725302 0.5
123 1 0.582153 0.715704 0.5
134 1 0.676816 0.718687 0.5
141 1 0.725944 0.702715 0.5
278 1 0.824897 0.711098 0.5
95 1 0.914447 0.713146 0.5
388 1 0.959081 0.700267 0.5
129 1 0.999903 0.732965 0.5
367 1 0.572519 0.763783 0.5
84 1 0.623175 0.744818 0.5
368 1 0.715153 0.753512 0.5
230 1 0.762474 0.736841 0.5
316 1 0.811701 0.764619 0.5
363 1 0.858418 0.748452 0.5
235 1 0.906588 0.76315 0.5
74 1 0.954782 0.751912 0.5
384 1 0.527141 0.784422 0.5
267 1 0.658977 0.779476 0.5
288 1 0.751126 0.787059 0.5
54 1 0.846494 0.795333 0.5
394 1 0.991402 0.797393 0.5
26 1 0.567263 0.815486 0.5
153 1 0.612707 0.800456 0.5
177 1 0.703067 0.822835 0.5
3 1 0.791649 0.810882 0.5
148 1 0.891465 0.826079 0.5
244 1 0.947576 0.81389 0.5
236 1 0.523109 0.841212 0.5
238 1 0.603875 0.857616 0.5
156 1 0.651939 0.844283 0.5
207 1 0.74997 0.834137 0.5
18 1 0.843686 0.845402 0.5
149 1 0.926034 0.858513 0.5
340 1 0.980852 0.851682 0.5
263 1 0.510261 0.892609 0.5
150 1 0.556693 0.875205 0.5
296 1 0.640474 0.890158 0.5
23 1 0.697847 0.870115 0.5
21 1 0.741966 0.89443 0.5
147 1 0.793231 0.874892 0.5
155 1 0.83695 0.899593 0.5
392 1 0.881032 0.881485 0.5
52 1 0.968526 0.89763 0.5
169 1 0.549761 0.923835 0.5
111 1 0.596026 0.909222 0.5
65 1 0.686923 0.917876 0.5
214 1 0.78043 0.923521 0.5
277 1 0.872078 0.929163 0.5
167 1 0.917422 0.913742 0.5
144 1 0.501271 0.938069 0.5
80 1 0.587997 0.959131 0.5
131 1 0.636972 0.940685 0.5
14 1 0.677107 0.963658 0.5
286 1 0.726282 0.943874 0.5
356 1 0.820968 0.94793 0.5
48 1 0.954818 0.944092 0.5
350 1 0.538294 0.972385 0.5
69 1 0.627132 0.991648 0.5
332 1 0.722654 0.992445 0.5
40 1 0.770142 0.976932 0.5
55 1 0.86306 0.977316 0.5
366 1 0.911951 0.971801 0.5
10 1 0.985671 0.984077 0.5
