ITEM: TIMESTEP
100000
ITEM: NUMBER OF ATOMS
400
ITEM: BOX BOUNDS pp pp pp
0.0000000000000000e+00 2.0519567041703080e+01
0.0000000000000000e+00 2.0519567041703080e+01
-5.1298917604257699e-01 5.1298917604257699e-01
ITEM: ATOMS id type xs ys zs
372 1 0.048087 0.024705 0.5
169 1 0.100018 0.00549734 0.5
248 1 0.187309 0.0271096 0.5
314 1 0.296526 0.01011 0.5
64 1 0.343964 0.010507 0.5
19 1 0.406933 0.00861377 0.5
6 1 0.458583 0.0227302 0.5
217 1 0.0954288 0.0569529 0.5
158 1 0.136519 0.0329097 0.5
98 1 0.235503 0.0508747 0.5
89 1 0.280998 0.0585474 0.5
65 1 0.328595 0.0572335 0.5
347 1 0.377875 0.0463039 0.5
12 1 0.424087 0.0613706 0.5
110 1 0.0530613 0.0789465 0.5
126 1 0.146294 0.0763693 0.5
366 1 0.193614 0.0940885 0.5
161 1 0.244973 0.0962442 0.5
123 1 0.473465 0.069491 0.5
316 1 0.090343 0.102866 0.5
360 1 0.153216 0.124134 0.5
315 1 0.300087 0.101133 0.5
219 1 0.347718 0.0989909 0.5
263 1 0.393969 0.0990646 0.5
393 1 0.441913 0.108382 0.5
176 1 0.488885 0.119354 0.5
7 1 0.0530493 0.134576 0.5
233 1 0.109372 0.152845 0.5
342 1 0.215605 0.137966 0.5
271 1 0.267259 0.141847 0.5
208 1 0.316849 0.149311 0.5
140 1 0.418434 0.158978 0.5
400 1 0.0161738 0.163719 0.5
72 1 0.0697527 0.180091 0.5
85 1 0.15193 0.170953 0.5
353 1 0.196279 0.183385 0.5
22 1 0.242475 0.189947 0.5
200 1 0.293475 0.19201 0.5
387 1 0.369428 0.165468 0.5
40 1 0.479255 0.162521 0.5
245 1 0.0341951 0.215684 0.5
343 1 0.112177 0.200734 0.5
107 1 0.156668 0.220598 0.5
115 1 0.348884 0.208968 0.5
243 1 0.395498 0.205639 0.5
68 1 0.451587 0.202117 0.5
251 1 0.087737 0.239373 0.5
357 1 0.223536 0.237937 0.5
303 1 0.271652 0.238956 0.5
138 1 0.329411 0.250086 0.5
223 1 0.375803 0.248497 0.5
222 1 0.428034 0.249146 0.5
370 1 0.475688 0.243884 0.5
241 1 0.0446333 0.260437 0.5
2 1 0.0814543 0.288924 0.5
5 1 0.130058 0.260801 0.5
165 1 0.182947 0.263548 0.5
249 1 0.240133 0.280944 0.5
76 1 0.297045 0.283577 0.5
197 1 0.00758404 0.293408 0.5
304 1 0.150159 0.31791 0.5
212 1 0.200753 0.31331 0.5
289 1 0.353691 0.294258 0.5
355 1 0.39883 0.29115 0.5
53 1 0.452357 0.291019 0.5
305 1 0.00824366 0.343319 0.5
135 1 0.0508006 0.323185 0.5
363 1 0.26884 0.327161 0.5
36 1 0.31644 0.339502 0.5
38 1 0.374526 0.338942 0.5
336 1 0.423893 0.333951 0.5
187 1 0.480628 0.339026 0.5
60 1 0.0487333 0.368327 0.5
193 1 0.124016 0.358893 0.5
378 1 0.17753 0.368583 0.5
28 1 0.225107 0.365684 0.5
238 1 0.276788 0.37755 0.5
29 1 0.322567 0.386044 0.5
179 1 0.379906 0.386153 0.5
81 1 0.432437 0.386441 0.5
67 1 0.00646793 0.392117 0.5
250 1 0.0478245 0.416633 0.5
341 1 0.0903403 0.390896 0.5
20 1 0.141289 0.402316 0.5
203 1 0.198017 0.411378 0.5
302 1 0.251144 0.417647 0.5
395 1 0.491061 0.390344 0.5
97 1 0.12448 0.447665 0.5
166 1 0.347617 0.428227 0.5
139 1 0.420012 0.430716 0.5
83 1 0.466461 0.429024 0.5
160 1 0.00473246 0.475392 0.5
14 1 0.0796525 0.460922 0.5
261 1 0.171561 0.454109 0.5
44 1 0.260318 0.481914 0.5
174 1 0.309502 0.462531 0.5
189 1 0.381216 0.459863 0.5
209 1 0.455576 0.479553 0.5
18 1 0.0409785 0.506608 0.5
332 1 0.0872482 0.509411 0.5
282 1 0.13914 0.507147 0.5
274 1 0.21205 0.484561 0.5
11 1 0.343178 0.502921 0.5
227 1 0.409008 0.499812 0.5
232 1 0.116324 0.547823 0.5
131 1 0.185539 0.52426 0.5
90 1 0.24327 0.529602 0.5
246 1 0.290619 0.520587 0.5
173 1 0.385456 0.54089 0.5
345 1 0.459097 0.530828 0.5
37 1 0.0199677 0.566045 0.5
373 1 0.0677686 0.560268 0.5
8 1 0.156082 0.577114 0.5
190 1 0.201205 0.578799 0.5
236 1 0.295651 0.570314 0.5
368 1 0.344438 0.571625 0.5
141 1 0.436454 0.573522 0.5
369 1 0.00179186 0.609732 0.5
109 1 0.111666 0.596532 0.5
75 1 0.248927 0.590638 0.5
358 1 0.392685 0.58836 0.5
129 1 0.483685 0.582234 0.5
101 1 0.0508827 0.615378 0.5
299 1 0.0931828 0.64006 0.5
327 1 0.151978 0.630202 0.5
42 1 0.1959 0.633821 0.5
210 1 0.291521 0.618695 0.5
62 1 0.354533 0.620715 0.5
130 1 0.428511 0.627867 0.5
59 1 0.474795 0.634461 0.5
297 1 0.0270435 0.668451 0.5
30 1 0.163541 0.675344 0.5
188 1 0.251055 0.661061 0.5
192 1 0.3491 0.666352 0.5
313 1 0.399504 0.667262 0.5
45 1 0.452256 0.676155 0.5
4 1 0.0694241 0.6928 0.5
156 1 0.119105 0.680895 0.5
346 1 0.302947 0.68213 0.5
285 1 0.00234311 0.714759 0.5
231 1 0.094053 0.731387 0.5
194 1 0.143617 0.722533 0.5
335 1 0.205197 0.714615 0.5
293 1 0.259438 0.711254 0.5
183 1 0.300645 0.736995 0.5
276 1 0.34477 0.713087 0.5
55 1 0.391818 0.713942 0.5
186 1 0.461128 0.729414 0.5
201 1 0.00636182 0.765629 0.5
376 1 0.0460567 0.742592 0.5
221 1 0.188703 0.771482 0.5
61 1 0.244101 0.75884 0.5
99 1 0.337589 0.769424 0.5
394 1 0.417649 0.753632 0.5
226 1 0.0382109 0.797936 0.5
136 1 0.0786603 0.776346 0.5
25 1 0.130217 0.776521 0.5
51 1 0.226721 0.803267 0.5
288 1 0.288467 0.790619 0.5
361 1 0.388343 0.795126 0.5
132 1 0.437906 0.802551 0.5
32 1 0.484209 0.787147 0.5
382 1 0.0729372 0.829324 0.5
106 1 0.123094 0.836692 0.5
266 1 0.171558 0.817086 0.5
267 1 0.335963 0.817332 0.5
281 1 0.0257275 0.845677 0.5
204 1 0.171091 0.870257 0.5
163 1 0.229326 0.850033 0.5
122 1 0.278381 0.840312 0.5
264 1 0.31755 0.86503 0.5
290 1 0.366806 0.869173 0.5
96 1 0.41109 0.842045 0.5
211 1 0.466219 0.839346 0.5
235 1 0.00482437 0.889586 0.5
73 1 0.0796072 0.876903 0.5
284 1 0.123839 0.900925 0.5
325 1 0.209778 0.899001 0.5
134 1 0.259162 0.895518 0.5
300 1 0.408864 0.898505 0.5
1 1 0.454993 0.884015 0.5
386 1 0.0428315 0.91636 0.5
54 1 0.310661 0.914393 0.5
224 1 0.357595 0.924023 0.5
322 1 0.468541 0.930187 0.5
119 1 0.0829143 0.938415 0.5
147 1 0.133974 0.94505 0.5
262 1 0.180893 0.936768 0.5
337 1 0.235013 0.939274 0.5
388 1 0.280908 0.962755 0.5
359 1 0.330173 0.963941 0.5
317 1 0.390674 0.963974 0.5
79 1 0.0475366 0.976553 0.5
3 1 0.154824 0.987775 0.5
164 1 0.200866 0.981702 0.5
252 1 0.244373 0.999932 0.5
162 1 0.436541 0.968143 0.5
216 1 0.4971 0.979028 0.5
259 1 0.509988 0.0249485 0.5
273 1 0.56642 0.0308559 0.5
234 1 0.63892 0.0217548 0.5
196 1 0.723936 0.0069787 0.5
268 1 0.816155 0.0107223 0.5
46 1 0.955144 0.0233365 0.5
31 1 0.999829 0.00219558 0.5
265 1 0.683843 0.0337237 0.5
244 1 0.772927 0.0333395 0.5
13 1 0.810002 0.0623424 0.5
149 1 0.859563 0.0425469 0.5
114 1 0.910413 0.0348131 0.5
70 1 0.99336 0.0570552 0.5
287 1 0.520016 0.0710393 0.5
272 1 0.584354 0.0759826 0.5
35 1 0.644737 0.0771724 0.5
275 1 0.714879 0.0703147 0.5
277 1 0.762017 0.0836198 0.5
326 1 0.851986 0.0959096 0.5
172 1 0.901081 0.0822726 0.5
118 1 0.946219 0.0753961 0.5
377 1 0.55205 0.111914 0.5
113 1 0.609957 0.114857 0.5
137 1 0.673703 0.114713 0.5
329 1 0.721624 0.12126 0.5
354 1 0.798403 0.115406 0.5
321 1 0.925195 0.12477 0.5
184 1 0.995056 0.103527 0.5
92 1 0.528012 0.160569 0.5
95 1 0.575646 0.155542 0.5
199 1 0.629744 0.157602 0.5
385 1 0.836738 0.138725 0.5
230 1 0.88673 0.153025 0.5
220 1 0.970903 0.147675 0.5
191 1 0.68777 0.161953 0.5
175 1 0.746308 0.171439 0.5
306 1 0.795969 0.17112 0.5
78 1 0.851294 0.186132 0.5
323 1 0.928658 0.177274 0.5
171 1 0.502429 0.20482 0.5
307 1 0.54959 0.206431 0.5
213 1 0.598327 0.196315 0.5
365 1 0.659026 0.200313 0.5
255 1 0.706301 0.213651 0.5
117 1 0.763687 0.21627 0.5
228 1 0.809335 0.21679 0.5
371 1 0.891419 0.210691 0.5
9 1 0.97844 0.195348 0.5
311 1 0.524438 0.248511 0.5
168 1 0.577115 0.24733 0.5
356 1 0.62731 0.235835 0.5
50 1 0.677653 0.249077 0.5
148 1 0.855056 0.241568 0.5
195 1 0.939683 0.231513 0.5
43 1 0.99201 0.244977 0.5
10 1 0.552442 0.286147 0.5
82 1 0.624177 0.285515 0.5
100 1 0.719914 0.279931 0.5
270 1 0.763362 0.264873 0.5
398 1 0.815454 0.26756 0.5
153 1 0.899007 0.258796 0.5
17 1 0.95107 0.278881 0.5
309 1 0.505752 0.299256 0.5
333 1 0.587214 0.321035 0.5
379 1 0.672361 0.300963 0.5
237 1 0.740027 0.32241 0.5
296 1 0.789316 0.306862 0.5
206 1 0.856936 0.291692 0.5
63 1 0.910735 0.304792 0.5
77 1 0.534648 0.336149 0.5
145 1 0.631922 0.351639 0.5
128 1 0.689123 0.342329 0.5
239 1 0.829029 0.334187 0.5
291 1 0.876209 0.338647 0.5
352 1 0.919401 0.352654 0.5
104 1 0.961396 0.326358 0.5
310 1 0.537619 0.385545 0.5
384 1 0.584153 0.38407 0.5
215 1 0.733601 0.377536 0.5
260 1 0.785654 0.364843 0.5
257 1 0.844397 0.380587 0.5
74 1 0.626098 0.405961 0.5
207 1 0.686145 0.392097 0.5
91 1 0.766516 0.409567 0.5
396 1 0.810261 0.411649 0.5
39 1 0.889799 0.393625 0.5
121 1 0.959938 0.395112 0.5
152 1 0.519566 0.430633 0.5
155 1 0.571457 0.429688 0.5
364 1 0.666955 0.44136 0.5
27 1 0.722154 0.426449 0.5
397 1 0.852231 0.431712 0.5
348 1 0.922777 0.425865 0.5
48 1 0.508513 0.474422 0.5
180 1 0.55568 0.475274 0.5
86 1 0.615603 0.459189 0.5
26 1 0.699294 0.481967 0.5
142 1 0.748271 0.469838 0.5
334 1 0.794597 0.456653 0.5
185 1 0.838154 0.476125 0.5
312 1 0.890632 0.46109 0.5
143 1 0.961586 0.453662 0.5
144 1 0.65196 0.493682 0.5
298 1 0.754899 0.515922 0.5
24 1 0.800711 0.504135 0.5
125 1 0.891561 0.507307 0.5
229 1 0.943597 0.5083 0.5
150 1 0.505844 0.529858 0.5
375 1 0.552482 0.52843 0.5
242 1 0.599557 0.518328 0.5
295 1 0.687706 0.527155 0.5
301 1 0.84805 0.526249 0.5
34 1 0.9897 0.522427 0.5
362 1 0.585465 0.568242 0.5
328 1 0.651972 0.564253 0.5
390 1 0.728374 0.554151 0.5
170 1 0.795122 0.558439 0.5
80 1 0.869733 0.571962 0.5
177 1 0.913497 0.554726 0.5
88 1 0.961337 0.561434 0.5
308 1 0.534713 0.586262 0.5
324 1 0.62692 0.605011 0.5
399 1 0.691849 0.591632 0.5
66 1 0.760486 0.591376 0.5
391 1 0.810336 0.608953 0.5
202 1 0.913069 0.602658 0.5
157 1 0.528875 0.641426 0.5
108 1 0.573428 0.621036 0.5
94 1 0.667163 0.632605 0.5
340 1 0.73055 0.626834 0.5
133 1 0.956382 0.622601 0.5
21 1 0.570325 0.667967 0.5
146 1 0.615465 0.653923 0.5
205 1 0.701153 0.664296 0.5
240 1 0.774229 0.648894 0.5
69 1 0.832344 0.655194 0.5
57 1 0.877239 0.650667 0.5
120 1 0.92793 0.661842 0.5
87 1 0.978408 0.664388 0.5
338 1 0.512631 0.688106 0.5
16 1 0.60161 0.704824 0.5
103 1 0.653221 0.685224 0.5
247 1 0.735776 0.699274 0.5
116 1 0.787856 0.694094 0.5
84 1 0.902035 0.709431 0.5
198 1 0.95111 0.706357 0.5
225 1 0.551441 0.717215 0.5
154 1 0.641262 0.7299 0.5
47 1 0.690468 0.717304 0.5
258 1 0.8085 0.740271 0.5
256 1 0.510705 0.746711 0.5
178 1 0.600737 0.753117 0.5
167 1 0.71105 0.759474 0.5
349 1 0.758306 0.742747 0.5
392 1 0.855757 0.746129 0.5
159 1 0.9059 0.756153 0.5
279 1 0.959747 0.772119 0.5
93 1 0.550106 0.775988 0.5
389 1 0.667298 0.780059 0.5
350 1 0.756056 0.787307 0.5
269 1 0.822296 0.786233 0.5
124 1 0.869795 0.792237 0.5
33 1 0.569745 0.832518 0.5
283 1 0.618507 0.815289 0.5
383 1 0.670537 0.833305 0.5
52 1 0.71494 0.811117 0.5
49 1 0.792153 0.827294 0.5
374 1 0.840334 0.83225 0.5
320 1 0.890997 0.838229 0.5
58 1 0.932484 0.812562 0.5
102 1 0.988277 0.813954 0.5
112 1 0.519388 0.843122 0.5
218 1 0.621833 0.864855 0.5
181 1 0.704256 0.868972 0.5
319 1 0.747946 0.849231 0.5
367 1 0.96183 0.860369 0.5
151 1 0.507847 0.888911 0.5
381 1 0.576834 0.879036 0.5
339 1 0.662082 0.889464 0.5
331 1 0.747342 0.899697 0.5
254 1 0.789904 0.878131 0.5
292 1 0.866728 0.878813 0.5
23 1 0.916406 0.88803 0.5
280 1 0.566072 0.933505 0.5
380 1 0.613183 0.911625 0.5
15 1 0.694531 0.925325 0.5
182 1 0.823489 0.912382 0.5
318 1 0.866243 0.932609 0.5
127 1 0.961784 0.908188 0.5
286 1 0.518021 0.937226 0.5
71 1 0.640623 0.960813 0.5
294 1 0.731094 0.953587 0.5
41 1 0.782843 0.93744 0.5
105 1 0.82511 0.961488 0.5
344 1 0.924987 0.941963 0.5
214 1 0.996607 0.949336 0.5
278 1 0.547356 0.977221 0.5
253 1 0.60001 0.987779 0.5
111 1 0.682029 0.981514 0.5
330 1 0.775251 0.98563 0.5
56 1 0.8883 0.976121 0.5
351 1 0.95801 0.973327 0.5
