ITEM: TIMESTEP
100000
ITEM: NUMBER OF ATOMS
400
ITEM: BOX BOUNDS pp pp pp
0.0000000000000000e+00 1.9518001458970666e+01
0.0000000000000000e+00 1.9518001458970666e+01
-4.8795003647426660e-01 4.8795003647426660e-01
ITEM: ATOMS id type xs ys zs
114 1 0.489877 0.47656 0.5
399 1 0.0691714 0.0258221 0.5
3 1 0.161472 0.0206562 0.5
15 1 0.280123 0.00753149 0.5
236 1 0.364167 0.0194644 0.5
211 1 0.411274 0.0331789 0.5
223 1 0.451213 0.00224269 0.5
210 1 0.0226939 0.0530283 0.5
220 1 0.114019 0.0472007 0.5
61 1 0.219399 0.0483301 0.5
26 1 0.317507 0.0425766 0.5
234 1 0.364157 0.0719897 0.5
202 1 0.45769 0.057548 0.5
1 1 0.0693371 0.0829443 0.5
21 1 0.163101 0.0751655 0.5
250 1 0.219557 0.105676 0.5
57 1 0.265989 0.0632506 0.5
45 1 0.315368 0.0952549 0.5
197 1 0.412836 0.0855966 0.5
7 1 0.0279276 0.103652 0.5
218 1 0.121905 0.107902 0.5
38 1 0.17549 0.131084 0.5
55 1 0.268373 0.125128 0.5
48 1 0.370226 0.121389 0.5
283 1 0.455562 0.104939 0.5
219 1 0.0284823 0.161231 0.5
11 1 0.0724357 0.137552 0.5
28 1 0.129326 0.160462 0.5
47 1 0.218873 0.157846 0.5
65 1 0.268242 0.173736 0.5
66 1 0.316873 0.145532 0.5
235 1 0.416246 0.139246 0.5
80 1 0.46994 0.166854 0.5
222 1 0.317899 0.978819 0.5
397 1 0.085672 0.18745 0.5
36 1 0.17401 0.182904 0.5
71 1 0.228668 0.208084 0.5
77 1 0.316219 0.196711 0.5
271 1 0.359831 0.168484 0.5
303 1 0.413608 0.190896 0.5
44 1 0.0427928 0.213263 0.5
24 1 0.133943 0.212519 0.5
34 1 0.275568 0.228183 0.5
54 1 0.370893 0.21591 0.5
213 1 0.471828 0.217829 0.5
204 1 0.0209051 0.00317442 0.5
30 1 0.0922265 0.236069 0.5
246 1 0.18408 0.231574 0.5
67 1 0.232097 0.257167 0.5
276 1 0.330652 0.249621 0.5
231 1 0.424687 0.241776 0.5
378 1 0.490407 0.865985 0.5
41 1 0.040884 0.264724 0.5
40 1 0.0999353 0.287958 0.5
25 1 0.143446 0.261838 0.5
73 1 0.191198 0.288464 0.5
214 1 0.291609 0.276846 0.5
33 1 0.338721 0.302088 0.5
314 1 0.380654 0.265994 0.5
70 1 0.433819 0.298275 0.5
268 1 0.47833 0.26479 0.5
230 1 0.0448585 0.320397 0.5
267 1 0.142456 0.309521 0.5
97 1 0.240928 0.308736 0.5
74 1 0.294003 0.326989 0.5
79 1 0.389885 0.32027 0.5
100 1 0.476138 0.321463 0.5
212 1 0.405664 0.982016 0.5
16 1 0.0968726 0.338739 0.5
58 1 0.146633 0.359002 0.5
241 1 0.196338 0.343999 0.5
43 1 0.241529 0.363138 0.5
68 1 0.340807 0.354764 0.5
108 1 0.437348 0.353924 0.5
51 1 0.00421968 0.35265 0.5
285 1 0.052865 0.369152 0.5
83 1 0.102942 0.385429 0.5
133 1 0.198665 0.394385 0.5
37 1 0.295415 0.380654 0.5
95 1 0.338453 0.40303 0.5
35 1 0.388544 0.372008 0.5
137 1 0.441832 0.407595 0.5
90 1 0.488995 0.368786 0.5
176 1 0.0636314 0.416779 0.5
53 1 0.147551 0.409672 0.5
50 1 0.250211 0.412398 0.5
62 1 0.296137 0.433688 0.5
260 1 0.394572 0.422292 0.5
307 1 0.0177668 0.405889 0.5
119 1 0.0211471 0.455705 0.5
112 1 0.105231 0.446451 0.5
270 1 0.211884 0.439955 0.5
125 1 0.256961 0.46363 0.5
52 1 0.359261 0.458761 0.5
75 1 0.444702 0.457407 0.5
164 1 0.0672432 0.480307 0.5
92 1 0.15759 0.457894 0.5
113 1 0.212496 0.49038 0.5
82 1 0.315126 0.482575 0.5
353 1 0.400462 0.487012 0.5
221 1 0.217713 0.9935 0.5
165 1 0.021993 0.514332 0.5
93 1 0.0766751 0.528144 0.5
27 1 0.117172 0.497071 0.5
103 1 0.16398 0.508216 0.5
101 1 0.265335 0.512355 0.5
138 1 0.309065 0.532411 0.5
195 1 0.355867 0.511202 0.5
86 1 0.410353 0.53981 0.5
104 1 0.453104 0.509058 0.5
134 1 0.0308902 0.569146 0.5
162 1 0.126689 0.545765 0.5
102 1 0.210147 0.542997 0.5
184 1 0.356979 0.560816 0.5
105 1 0.457811 0.557863 0.5
126 1 0.0824524 0.582732 0.5
116 1 0.168249 0.576374 0.5
155 1 0.218887 0.59396 0.5
156 1 0.255838 0.560937 0.5
63 1 0.313644 0.584462 0.5
154 1 0.410131 0.590792 0.5
143 1 0.0323951 0.619513 0.5
290 1 0.130241 0.608192 0.5
183 1 0.179577 0.623602 0.5
175 1 0.272148 0.613536 0.5
107 1 0.36487 0.610516 0.5
147 1 0.460659 0.608482 0.5
132 1 0.0382754 0.671344 0.5
4 1 0.0907997 0.641136 0.5
177 1 0.135271 0.665269 0.5
174 1 0.233436 0.64788 0.5
129 1 0.318631 0.63404 0.5
344 1 0.409426 0.639236 0.5
166 1 0.457666 0.659347 0.5
2 1 0.0896885 0.692724 0.5
146 1 0.190264 0.673478 0.5
185 1 0.234847 0.69689 0.5
136 1 0.278328 0.666869 0.5
150 1 0.368453 0.663052 0.5
331 1 0.421305 0.691396 0.5
182 1 0.0344507 0.719328 0.5
135 1 0.137875 0.719352 0.5
352 1 0.192225 0.723693 0.5
167 1 0.283572 0.714873 0.5
363 1 0.324108 0.689553 0.5
20 1 0.378748 0.717351 0.5
233 1 0.465424 0.713405 0.5
157 1 0.0484745 0.765948 0.5
169 1 0.0945391 0.749604 0.5
178 1 0.143006 0.76573 0.5
170 1 0.2444 0.742946 0.5
140 1 0.33769 0.745929 0.5
342 1 0.425241 0.744465 0.5
244 1 0.484174 0.759825 0.5
200 1 0.0877095 0.800535 0.5
19 1 0.19793 0.776648 0.5
196 1 0.291877 0.770988 0.5
118 1 0.341378 0.800247 0.5
59 1 0.382761 0.770481 0.5
323 1 0.444818 0.79482 0.5
17 1 0.267827 0.957129 0.5
398 1 0.0437157 0.819585 0.5
22 1 0.153112 0.820408 0.5
14 1 0.246221 0.805758 0.5
187 1 0.295169 0.819681 0.5
149 1 0.402107 0.823593 0.5
394 1 0.492723 0.81305 0.5
13 1 0.115394 0.997173 0.5
168 1 0.109814 0.84767 0.5
190 1 0.164302 0.869027 0.5
343 1 0.20459 0.834479 0.5
29 1 0.265148 0.860388 0.5
203 1 0.36152 0.852311 0.5
337 1 0.445794 0.844522 0.5
49 1 0.165208 0.964919 0.5
194 1 0.0641827 0.869564 0.5
186 1 0.118161 0.897786 0.5
199 1 0.212553 0.883161 0.5
158 1 0.315224 0.879903 0.5
381 1 0.406543 0.876243 0.5
188 1 0.452346 0.898157 0.5
56 1 0.485514 0.427251 0.5
153 1 0.0635933 0.921487 0.5
189 1 0.163748 0.917218 0.5
173 1 0.259329 0.911892 0.5
392 1 0.3623 0.900224 0.5
354 1 0.403506 0.926457 0.5
396 1 0.000286631 0.85128 0.5
5 1 0.012878 0.95077 0.5
10 1 0.110975 0.946068 0.5
232 1 0.210637 0.936492 0.5
356 1 0.310038 0.927376 0.5
18 1 0.359379 0.951199 0.5
391 1 0.444364 0.950307 0.5
8 1 0.0658406 0.974939 0.5
393 1 0.497151 0.923723 0.5
160 1 0.00512457 0.902275 0.5
12 1 -0.00111978 0.302144 0.5
277 1 0.491491 0.974598 0.5
400 1 0.875924 0.993644 0.5
245 1 0.602491 0.0207596 0.5
39 1 0.688102 0.0106928 0.5
365 1 0.743343 0.0316734 0.5
338 1 0.783231 0.00380726 0.5
324 1 0.836394 0.0244257 0.5
328 1 0.927528 0.0163734 0.5
89 1 0.554982 0.0495102 0.5
265 1 0.604852 0.0721502 0.5
263 1 0.648847 0.0415618 0.5
266 1 0.702563 0.0603211 0.5
386 1 0.793608 0.0559847 0.5
191 1 0.883294 0.0500689 0.5
228 1 0.930555 0.066639 0.5
360 1 0.97762 0.0333895 0.5
141 1 0.826171 0.963088 0.5
9 1 0.552551 0.0970976 0.5
262 1 0.658394 0.0953991 0.5
369 1 0.751057 0.0880479 0.5
366 1 0.842348 0.0777402 0.5
31 1 0.892787 0.0994205 0.5
238 1 0.985153 0.194327 0.5
46 1 0.982472 0.0847747 0.5
253 1 0.596295 0.121455 0.5
209 1 0.704883 0.115063 0.5
247 1 0.795842 0.105193 0.5
368 1 0.845376 0.128052 0.5
6 1 0.937736 0.119072 0.5
322 1 0.558713 0.150424 0.5
264 1 0.645479 0.141979 0.5
227 1 0.694666 0.164356 0.5
206 1 0.752616 0.134794 0.5
207 1 0.807476 0.157028 0.5
216 1 0.888726 0.152025 0.5
239 1 0.980267 0.142528 0.5
179 1 0.517279 0.179203 0.5
291 1 0.604319 0.174483 0.5
272 1 0.656516 0.200587 0.5
387 1 0.759386 0.185214 0.5
240 1 0.850191 0.183315 0.5
278 1 0.898415 0.202482 0.5
171 1 0.942051 0.173241 0.5
99 1 0.561671 0.200763 0.5
254 1 0.615887 0.228553 0.5
287 1 0.701819 0.214488 0.5
258 1 0.80294 0.214327 0.5
395 1 0.85215 0.237036 0.5
274 1 0.518739 0.231864 0.5
295 1 0.559162 0.256683 0.5
313 1 0.659416 0.252202 0.5
269 1 0.755633 0.237327 0.5
248 1 0.806555 0.262722 0.5
23 1 0.897599 0.256685 0.5
257 1 0.942988 0.226279 0.5
251 1 0.524212 0.294528 0.5
321 1 0.61484 0.280571 0.5
208 1 0.71196 0.261584 0.5
72 1 0.753104 0.291731 0.5
275 1 0.852003 0.289268 0.5
217 1 0.944608 0.284537 0.5
252 1 0.571733 0.303976 0.5
311 1 0.624926 0.340652 0.5
242 1 0.663542 0.301794 0.5
261 1 0.709626 0.322819 0.5
229 1 0.809962 0.314076 0.5
42 1 0.958884 0.331736 0.5
64 1 0.533337 0.342517 0.5
293 1 0.577142 0.370426 0.5
294 1 0.671126 0.36464 0.5
32 1 0.763764 0.342078 0.5
256 1 0.863161 0.336594 0.5
282 1 0.904114 0.308457 0.5
249 1 0.916018 0.358638 0.5
292 1 0.531481 0.39476 0.5
85 1 0.606922 0.412967 0.5
255 1 0.729799 0.376073 0.5
286 1 0.820566 0.368231 0.5
111 1 0.869748 0.386078 0.5
91 1 0.968164 0.387149 0.5
78 1 0.584653 0.456897 0.5
296 1 0.65831 0.411684 0.5
333 1 0.776955 0.394054 0.5
273 1 0.827067 0.42196 0.5
259 1 0.918576 0.410773 0.5
301 1 0.533205 0.446819 0.5
243 1 0.640846 0.465461 0.5
341 1 0.737883 0.424545 0.5
300 1 0.782737 0.446079 0.5
117 1 0.836951 0.475427 0.5
310 1 0.87472 0.438827 0.5
88 1 0.922593 0.45874 0.5
348 1 0.97639 0.437718 0.5
106 1 0.546503 0.495096 0.5
148 1 0.694174 0.457918 0.5
76 1 0.742074 0.481672 0.5
330 1 0.887791 0.493481 0.5
319 1 0.978509 0.486813 0.5
69 1 0.50198 0.526337 0.5
96 1 0.595267 0.512292 0.5
281 1 0.687051 0.509219 0.5
302 1 0.732908 0.530883 0.5
299 1 0.790808 0.492923 0.5
312 1 0.831702 0.522867 0.5
309 1 0.934247 0.510741 0.5
145 1 0.555692 0.545568 0.5
115 1 0.606412 0.561877 0.5
304 1 0.640544 0.52474 0.5
382 1 0.69117 0.560637 0.5
288 1 0.786133 0.550432 0.5
317 1 0.875829 0.544478 0.5
120 1 0.976475 0.534718 0.5
159 1 0.510504 0.627466 0.5
94 1 0.553244 0.595197 0.5
84 1 0.647422 0.586631 0.5
109 1 0.745207 0.577239 0.5
81 1 0.832023 0.573712 0.5
123 1 0.891549 0.599072 0.5
289 1 0.923911 0.557333 0.5
225 1 0.49942 0.129234 0.5
193 1 0.991132 0.748271 0.5
349 1 0.602545 0.611223 0.5
284 1 0.698689 0.611059 0.5
367 1 0.789442 0.600612 0.5
316 1 0.833768 0.625099 0.5
298 1 0.932261 0.622472 0.5
127 1 0.553764 0.646703 0.5
351 1 0.649547 0.640083 0.5
362 1 0.746214 0.628698 0.5
345 1 0.79824 0.65959 0.5
121 1 0.890862 0.648632 0.5
122 1 0.984076 0.585201 0.5
350 1 0.505027 0.679175 0.5
87 1 0.605797 0.66534 0.5
110 1 0.660727 0.68938 0.5
315 1 0.713934 0.669623 0.5
98 1 0.756579 0.690676 0.5
142 1 0.847528 0.672477 0.5
124 1 0.945652 0.669714 0.5
280 1 0.985744 0.643038 0.5
373 1 0.525127 0.725352 0.5
128 1 0.566177 0.697323 0.5
371 1 0.618312 0.713507 0.5
357 1 0.714263 0.72039 0.5
318 1 0.809358 0.707584 0.5
172 1 0.852528 0.732859 0.5
320 1 0.89268 0.700196 0.5
237 1 0.948094 0.718476 0.5
305 1 0.580543 0.750364 0.5
359 1 0.667884 0.739679 0.5
335 1 0.758417 0.741034 0.5
131 1 0.904104 0.749124 0.5
151 1 0.971683 0.982883 0.5
372 1 0.534123 0.775089 0.5
347 1 0.631506 0.770483 0.5
332 1 0.675641 0.799011 0.5
336 1 0.718029 0.775073 0.5
329 1 0.766064 0.799764 0.5
279 1 0.809458 0.757406 0.5
181 1 0.863378 0.785726 0.5
390 1 0.946377 0.774228 0.5
226 1 0.581606 0.808664 0.5
388 1 0.719169 0.82466 0.5
297 1 0.814954 0.814356 0.5
192 1 0.908443 0.808613 0.5
389 1 0.956557 0.830452 0.5
364 1 0.53728 0.831125 0.5
215 1 0.57998 0.857823 0.5
130 1 0.629822 0.827071 0.5
326 1 0.677544 0.853263 0.5
325 1 0.771487 0.84876 0.5
361 1 0.817489 0.862896 0.5
152 1 0.863297 0.835159 0.5
144 1 0.908982 0.857847 0.5
201 1 0.533595 0.889816 0.5
334 1 0.631525 0.877785 0.5
358 1 0.725587 0.873266 0.5
340 1 0.7774 0.896405 0.5
346 1 0.866574 0.885321 0.5
198 1 0.95654 0.879224 0.5
180 1 0.5928 0.908112 0.5
384 1 0.679071 0.910743 0.5
385 1 0.729533 0.927749 0.5
380 1 0.826595 0.91557 0.5
161 1 0.915205 0.912452 0.5
224 1 0.547631 0.938245 0.5
205 1 0.59005 0.966309 0.5
383 1 0.636768 0.933807 0.5
327 1 0.684905 0.962107 0.5
339 1 0.779847 0.947285 0.5
377 1 0.870379 0.937865 0.5
370 1 0.923326 0.962983 0.5
375 1 0.964913 0.93351 0.5
376 1 0.538131 0.991541 0.5
379 1 0.640259 0.986031 0.5
374 1 0.729528 0.975562 0.5
139 1 0.502809 0.577811 0.5
60 1 0.506761 0.0786878 0.5
163 1 0.994999 0.80176 0.5
355 1 0.501438 0.0223657 0.5
306 1 0.994338 0.248001 0.5
308 1 0.991235 0.692842 0.5
