LAMMPS (15 Sep 2022)
OMP_NUM_THREADS environment is not set. Defaulting to 1 thread. (src/comm.cpp:98)
  using 1 OpenMP thread(s) per MPI task
# 2d WCA system, random initial configuration

#variable density equal 0.5
variable initial_temperature equal 3.0
variable final_temperature equal 0.1
variable dt equal 0.01
variable tau equal 100*${dt}
variable tau equal 100*0.01
variable thermo_time equal 50000*${dt}
variable thermo_time equal 50000*0.01
variable equil_steps equal 50000
variable run_steps equal 100000

units           lj
atom_style      atomic
dimension       2

lattice         sq ${density}
lattice         sq 0.95
Lattice spacing in x,y,z = 1.0259784 1.0259784 1.0259784
region          box block 0 20 0 20 -0.5 0.5
# number of atom types
create_box      1 box
Created orthogonal box = (0 0 -0.51298918) to (20.519567 20.519567 0.51298918)
  2 by 1 by 1 MPI processor grid
create_atoms    1 box
Created 400 atoms
  using lattice units in orthogonal box = (0 0 -0.51298918) to (20.519567 20.519567 0.51298918)
  create_atoms CPU = 0.000 seconds
mass 1 1.0

velocity all create ${initial_temperature} 12345
velocity all create 3 12345

pair_style      lj/cut 1.0
#type_1 type_2 epsilon sigma cutoff
pair_coeff      1 1 10.0 0.89089871814 1.0
pair_modify shift yes

timestep ${dt}
timestep 0.01
thermo ${thermo_time}
thermo 500

fix 1 all nvt temp ${initial_temperature} ${initial_temperature} ${tau}
fix 1 all nvt temp 3 ${initial_temperature} ${tau}
fix 1 all nvt temp 3 3 ${tau}
fix 1 all nvt temp 3 3 1
run ${equil_steps}
run 50000
Generated 0 of 0 mixed pair_coeff terms from geometric mixing rule
Neighbor list info ...
  update: every = 1 steps, delay = 0 steps, check = yes
  max neighbors/atom: 2000, page size: 100000
  master list distance cutoff = 1.3
  ghost atom cutoff = 1.3
  binsize = 0.65, bins = 32 32 2
  1 neighbor lists, perpetual/occasional/extra = 1 0 0
  (1) pair lj/cut, perpetual
      attributes: half, newton on
      pair build: half/bin/atomonly/newton
      stencil: half/bin/2d
      bin: standard
Per MPI rank memory allocation (min/avg/max) = 3.052 | 3.052 | 3.052 Mbytes
   Step          Temp          E_pair         E_mol          TotEng         Press     
         0   3              0              0              2.9925         2.842875     
       500   3.1725664      1.2012659      0              4.3659009      24.634395    
      1000   3.1180263      1.2187656      0              4.3289969      24.919453    
      1500   3.1102241      1.1898952      0              4.2923437      24.554845    
      2000   3.0408985      1.2850959      0              4.3183922      25.02455     
      2500   2.8006733      1.3296896      0              4.1233612      25.507354    
      3000   3.1381657      1.1250018      0              4.2553221      23.470936    
      3500   2.7954325      1.2305632      0              4.0190071      23.934341    
      4000   3.0410304      1.2198027      0              4.2532305      24.287264    
      4500   2.9171609      1.4767055      0              4.3865735      26.947749    
      5000   3.5156578      1.3650332      0              4.8719019      26.195948    
      5500   3.1508659      1.2192227      0              4.3622114      23.774036    
      6000   3.0710557      1.5168851      0              4.5802631      27.377725    
      6500   2.9923764      1.3555869      0              4.3404824      26.691978    
      7000   3.0229934      1.3815333      0              4.3969692      26.636004    
      7500   2.897703       1.2821816      0              4.1726403      24.489697    
      8000   2.862365       1.2666279      0              4.121837       24.397181    
      8500   3.0016722      1.3172472      0              4.3114152      25.134487    
      9000   2.9925954      1.5714325      0              4.5565464      28.466762    
      9500   3.4567747      1.3118414      0              4.7599742      25.374302    
     10000   2.876398       1.380146       0              4.249353       26.5852      
     10500   3.0577128      1.2668135      0              4.3168819      24.539066    
     11000   3.1513138      1.2780977      0              4.4215332      24.834835    
     11500   3.1317209      1.2676516      0              4.3915432      25.216961    
     12000   2.9354585      1.3525473      0              4.2806672      25.239468    
     12500   2.8167641      1.3749051      0              4.1846273      26.128455    
     13000   2.9412037      1.4252236      0              4.3590744      26.331691    
     13500   3.2273615      1.3231024      0              4.5423954      25.931609    
     14000   3.0553513      1.2138783      0              4.2615911      23.952376    
     14500   3.0726108      1.3896185      0              4.4545478      26.142847    
     15000   2.9555203      1.3515991      0              4.2997306      25.936826    
     15500   3.0029353      1.1544903      0              4.1499183      23.374774    
     16000   3.0962999      1.102394       0              4.1909531      22.317457    
     16500   2.893276       1.2238332      0              4.1098761      24.097523    
     17000   2.9239551      1.2571713      0              4.1738165      25.251202    
     17500   3.0394277      1.2031701      0              4.2349992      23.717677    
     18000   3.0517031      1.5572849      0              4.6013588      28.121325    
     18500   3.0624405      1.3478712      0              4.4026555      25.405638    
     19000   3.3263825      1.2095251      0              4.5275916      24.387331    
     19500   2.9344209      1.3037559      0              4.2308407      25.195336    
     20000   2.7734308      1.2588802      0              4.0253774      24.931321    
     20500   3.0918121      1.1153729      0              4.1994555      22.366101    
     21000   2.9880974      1.1734386      0              4.1540658      23.758349    
     21500   2.9858046      1.1894384      0              4.1677785      24.128866    
     22000   2.7689688      1.353868       0              4.1159144      25.14566     
     22500   3.1777964      1.1443132      0              4.3141651      23.540152    
     23000   3.036287       1.2044102      0              4.2331065      23.585739    
     23500   2.8711134      1.3113637      0              4.1752993      25.026798    
     24000   3.0186869      1.2123711      0              4.2235112      23.824262    
     24500   2.9164726      1.206487       0              4.1156684      23.846563    
     25000   3.065457       1.2034188      0              4.2612122      23.684789    
     25500   2.7299488      1.3314563      0              4.0545802      25.622149    
     26000   2.9308994      1.24274        0              4.1663122      24.372192    
     26500   2.8531385      1.3178719      0              4.1638775      25.520373    
     27000   2.9022469      1.3984701      0              4.2934614      26.322317    
     27500   3.0721065      1.2353059      0              4.2997322      24.369804    
     28000   3.0627841      1.2177756      0              4.2729028      23.73547     
     28500   2.9561439      1.4580025      0              4.4067561      27.366466    
     29000   3.1778949      1.4547719      0              4.624722       27.205656    
     29500   3.0954686      1.5938438      0              4.6815737      28.679138    
     30000   3.1035175      1.4509283      0              4.5466871      26.966083    
     30500   3.2707465      1.2530212      0              4.5155909      24.736632    
     31000   3.0722841      1.3492012      0              4.4138046      25.700308    
     31500   3.127754       1.2592483      0              4.379183       25.010216    
     32000   2.8248676      1.0561772      0              3.8739827      21.734211    
     32500   2.7604505      1.3063416      0              4.059891       24.556292    
     33000   2.9367074      1.2312901      0              4.1606557      24.28309     
     33500   3.0398104      1.1500226      0              4.1822335      24.035586    
     34000   2.9941552      1.0898405      0              4.0765103      22.702467    
     34500   2.885225       1.175917       0              4.0539289      23.757731    
     35000   2.7302689      1.4045317      0              4.1279749      25.998199    
     35500   2.9587054      1.1052824      0              4.0565911      22.491608    
     36000   3.0032023      1.1399013      0              4.1355956      23.152598    
     36500   2.8701246      1.2225656      0              4.0855149      23.739223    
     37000   2.9092377      1.1818439      0              4.0838085      23.63863     
     37500   2.8146453      1.1732631      0              3.9808719      23.670031    
     38000   2.8924124      1.1577111      0              4.0428925      23.331144    
     38500   2.7929934      1.0494836      0              3.8354946      22.204091    
     39000   2.7293541      1.360626       0              4.0831568      25.572743    
     39500   2.9417357      1.3363116      0              4.2706929      24.979702    
     40000   3.0457553      1.2569321      0              4.2950731      24.793281    
     40500   3.1926224      1.2784218      0              4.4630627      25.818352    
     41000   3.1515014      1.1585336      0              4.3021562      23.591744    
     41500   3.0059633      1.4668853      0              4.4653337      27.020266    
     42000   3.0885997      1.1918539      0              4.2727321      24.259103    
     42500   3.0415233      1.3840941      0              4.4180136      25.974512    
     43000   3.0188242      1.2899037      0              4.3011809      24.876638    
     43500   2.8799258      1.2679993      0              4.1407254      23.856748    
     44000   2.958306       1.2623954      0              4.2133056      25.031181    
     44500   2.8261127      1.2594025      0              4.0784499      24.168418    
     45000   2.9284444      1.2806243      0              4.2017476      25.015652    
     45500   2.9676905      1.0648514      0              4.0251227      22.162945    
     46000   3.0151007      1.1332443      0              4.1408072      22.580298    
     46500   2.9198305      1.310147       0              4.2226779      24.736202    
     47000   2.718786       1.3869483      0              4.0989374      25.526277    
     47500   2.9961232      1.2413276      0              4.2299604      24.567972    
     48000   2.988832       1.2710598      0              4.2524197      25.131456    
     48500   2.9024946      1.4549577      0              4.350196       26.693508    
     49000   3.2236119      1.3045418      0              4.5200946      25.169105    
     49500   3.32182        1.4141399      0              4.7276553      26.485299    
     50000   3.2059154      1.2616546      0              4.4595552      25.355138    
Loop time of 1.36085 on 2 procs for 50000 steps with 400 atoms

Performance: 31744841.373 tau/day, 36741.715 timesteps/s, 14.697 Matom-step/s
94.5% CPU use with 2 MPI tasks x 1 OpenMP threads

MPI task timing breakdown:
Section |  min time  |  avg time  |  max time  |%varavg| %total
---------------------------------------------------------------
Pair    | 0.32572    | 0.33944    | 0.35315    |   2.4 | 24.94
Neigh   | 0.46303    | 0.46962    | 0.47621    |   1.0 | 34.51
Comm    | 0.2741     | 0.29473    | 0.31536    |   3.8 | 21.66
Output  | 0.0014924  | 0.0035838  | 0.0056751  |   3.5 |  0.26
Modify  | 0.16871    | 0.169      | 0.16928    |   0.1 | 12.42
Other   |            | 0.08448    |            |       |  6.21

Nlocal:            200 ave         204 max         196 min
Histogram: 1 0 0 0 0 0 0 0 0 1
Nghost:           77.5 ave          78 max          77 min
Histogram: 1 0 0 0 0 0 0 0 0 1
Neighs:          501.5 ave         518 max         485 min
Histogram: 1 0 0 0 0 0 0 0 0 1

Total # of neighbors = 1003
Ave neighs/atom = 2.5075
Neighbor list builds = 16877
Dangerous builds = 0

unfix 1
dump           1 all atom ${run_steps} 2dWCA_T${final_temperature}_d${density}_N${run_steps}.lammpstrj
dump           1 all atom 100000 2dWCA_T${final_temperature}_d${density}_N${run_steps}.lammpstrj
dump           1 all atom 100000 2dWCA_T0.1_d${density}_N${run_steps}.lammpstrj
dump           1 all atom 100000 2dWCA_T0.1_d0.95_N${run_steps}.lammpstrj
dump           1 all atom 100000 2dWCA_T0.1_d0.95_N100000.lammpstrj
dump           2 all dcd ${thermo_time} 2dWCA_T${final_temperature}_d${density}_N${run_steps}.dcd
dump           2 all dcd 500 2dWCA_T${final_temperature}_d${density}_N${run_steps}.dcd
dump           2 all dcd 500 2dWCA_T0.1_d${density}_N${run_steps}.dcd
dump           2 all dcd 500 2dWCA_T0.1_d0.95_N${run_steps}.dcd
dump           2 all dcd 500 2dWCA_T0.1_d0.95_N100000.dcd
fix 1 all nvt temp ${initial_temperature} ${final_temperature} ${tau}
fix 1 all nvt temp 3 ${final_temperature} ${tau}
fix 1 all nvt temp 3 0.1 ${tau}
fix 1 all nvt temp 3 0.1 1

run ${run_steps}
run 100000
Generated 0 of 0 mixed pair_coeff terms from geometric mixing rule
Per MPI rank memory allocation (min/avg/max) = 3.086 | 3.086 | 3.086 Mbytes
   Step          Temp          E_pair         E_mol          TotEng         Press     
     50000   3.2059154      1.2616546      0              4.4595552      25.355138    
     50500   3.1249553      1.2404465      0              4.3575894      24.242769    
     51000   3.0966753      1.3733909      0              4.4623246      25.638819    
     51500   2.911887       1.2142578      0              4.118865       24.001869    
     52000   2.9631041      1.1746683      0              4.1303647      23.62731     
     52500   2.9955747      1.2417824      0              4.2298682      23.949706    
     53000   3.3523597      1.224228       0              4.5682067      24.966274    
     53500   3.1288523      1.2073561      0              4.3283863      24.22748     
     54000   2.8572525      1.362622       0              4.2127313      25.53707     
     54500   2.9390864      1.2486576      0              4.1803963      24.175378    
     55000   2.9932732      1.2346818      0              4.2204718      24.857796    
     55500   2.9635681      1.2193993      0              4.1755585      24.464693    
     56000   3.0110689      1.1829564      0              4.1864977      23.541597    
     56500   3.0045407      1.1645939      0              4.1616232      23.456441    
     57000   3.10402        1.0145638      0              4.1108237      21.857583    
     57500   2.9055331      1.1631308      0              4.0614001      23.576293    
     58000   2.9736054      1.1783824      0              4.1445538      23.649984    
     58500   2.7584203      1.3328869      0              4.0844112      25.697717    
     59000   2.6088206      1.3290551      0              3.9313536      25.172269    
     59500   2.9292996      1.0500656      0              3.972042       21.703397    
     60000   2.8097676      1.1915874      0              3.9943306      23.680424    
     60500   2.9407533      1.1381665      0              4.0715679      22.82025     
     61000   2.8827536      1.090988       0              3.9665346      22.638789    
     61500   2.696322       1.1140642      0              3.8036454      22.261177    
     62000   2.6228849      1.129331       0              3.7456587      22.244685    
     62500   2.5952694      1.068527       0              3.6573083      21.887626    
     63000   2.5596045      1.0140785      0              3.5672839      20.713968    
     63500   2.4248786      1.119865       0              3.5386814      22.783953    
     64000   2.5343357      1.001863       0              3.5298628      21.07429     
     64500   2.6071837      0.88513937     0              3.4858051      19.391461    
     65000   2.3523071      0.95286538     0              3.2992917      20.095458    
     65500   2.3538521      1.1280372      0              3.4760047      21.977509    
     66000   2.5786025      0.94794331     0              3.5200993      20.395434    
     66500   2.4527546      1.0223612      0              3.468984       20.390081    
     67000   2.5410305      1.0054989      0              3.5401768      20.736731    
     67500   2.6180459      0.92520623     0              3.5367071      20.435526    
     68000   2.4423755      0.87315204     0              3.3094216      19.072603    
     68500   2.4781445      0.99072039     0              3.4626696      20.212049    
     69000   2.2851628      0.97286255     0              3.2523124      20.077626    
     69500   2.44337        0.97352006     0              3.4107816      20.448228    
     70000   2.5009307      0.83825161     0              3.3329299      18.668281    
     70500   2.4286996      0.88734252     0              3.3099704      19.539169    
     71000   2.3480104      0.92908991     0              3.2712303      19.572542    
     71500   2.4374549      0.91231467     0              3.343676       19.833282    
     72000   2.3328671      0.88184983     0              3.2088848      19.404351    
     72500   2.212348       1.0104856      0              3.2173028      20.361026    
     73000   2.2858256      0.89282856     0              3.1729396      19.38113     
     73500   2.4562624      0.80677432     0              3.256896       18.515101    
     74000   2.3391836      1.0560993      0              3.389435       21.867294    
     74500   2.3767163      0.9036038      0              3.2743783      19.485586    
     75000   2.270982       0.92804831     0              3.1933529      20.095208    
     75500   2.1919545      0.98526396     0              3.1717385      19.931288    
     76000   2.264884       0.95999786     0              3.2192196      19.274443    
     76500   2.3224234      0.94155664     0              3.258174       19.768372    
     77000   2.2370163      0.99426878     0              3.2256926      20.369054    
     77500   2.323549       0.84386976     0              3.1616099      18.391964    
     78000   2.3538141      0.77593753     0              3.1238671      17.720953    
     78500   1.9784703      0.74639759     0              2.7199217      17.336945    
     79000   1.9623151      0.91117696     0              2.8685863      19.269666    
     79500   2.2394522      0.72546301     0              2.9593165      16.793086    
     80000   2.1828767      0.89391371     0              3.0713332      19.326233    
     80500   2.2903107      0.81931428     0              3.1038992      18.36113     
     81000   2.1759377      0.87304214     0              3.04354        18.57506     
     81500   1.9888775      0.83879556     0              2.8227009      18.422464    
     82000   1.9145262      0.84702993     0              2.7567698      18.523163    
     82500   1.9269509      0.87829432     0              2.8004278      18.791063    
     83000   2.0210231      0.72404753     0              2.7400181      16.546778    
     83500   1.8416185      0.82871759     0              2.665732       17.95833     
     84000   2.0015694      0.80238175     0              2.7989473      17.46012     
     84500   1.9360285      0.82440781     0              2.7555962      18.000979    
     85000   1.9565838      0.73939476     0              2.6910871      16.917868    
     85500   1.8068229      0.78187542     0              2.5841813      16.713038    
     86000   2.0112322      0.70085373     0              2.7070578      16.191566    
     86500   2.0083446      0.75877241     0              2.7620962      17.214174    
     87000   2.0176278      0.72458253     0              2.7371662      16.829507    
     87500   2.0018755      0.83642929     0              2.8333001      18.035598    
     88000   2.0215387      0.71014988     0              2.7266347      16.784156    
     88500   1.9353141      0.79187256     0              2.7223484      17.736509    
     89000   1.881356       0.62724045     0              2.503893       14.892023    
     89500   1.6338671      0.79787762     0              2.4276601      17.368677    
     90000   1.6022408      0.72975431     0              2.3279895      16.710873    
     90500   1.7813898      0.7020384      0              2.4789747      16.127548    
     91000   1.7396523      0.71865334     0              2.4539566      16.268144    
     91500   1.7692455      0.76982367     0              2.5346461      17.610039    
     92000   1.8621551      0.77464183     0              2.6321415      17.432508    
     92500   1.8714777      0.67089661     0              2.5376956      15.742893    
     93000   1.8382283      0.73252531     0              2.5661581      16.50765     
     93500   1.7663186      0.73308483     0              2.4949876      16.517541    
     94000   1.8537513      0.69400262     0              2.5431195      16.052704    
     94500   1.7139842      0.6157788      0              2.325478       14.607576    
     95000   1.7780329      0.6566211      0              2.4302089      15.40644     
     95500   1.6226312      0.68907232     0              2.3076469      16.015145    
     96000   1.692131       0.68263643     0              2.3705371      15.958563    
     96500   1.7113567      0.57441044     0              2.2814887      14.334796    
     97000   1.6590083      0.75452485     0              2.4093856      16.971353    
     97500   1.6950493      0.57711302     0              2.2679247      14.285425    
     98000   1.6180079      0.68141155     0              2.2953745      15.883497    
     98500   1.6168576      0.62517311     0              2.2379885      14.8873      
     99000   1.5949188      0.62651921     0              2.2174507      14.818321    
     99500   1.359199       0.55457432     0              1.9103753      13.755351    
    100000   1.4467559      0.57551975     0              2.0186587      14.105382    
    100500   1.3809058      0.64684507     0              2.0242986      15.228298    
    101000   1.4407333      0.62157768     0              2.0587092      14.549074    
    101500   1.4761641      0.59367865     0              2.0661523      14.3546      
    102000   1.4602808      0.57758019     0              2.0342103      13.940757    
    102500   1.4933437      0.55210436     0              2.0417147      13.598157    
    103000   1.43107        0.61172717     0              2.0392195      14.755659    
    103500   1.4253663      0.57637119     0              1.9981741      13.984282    
    104000   1.5215377      0.55882917     0              2.076563       13.716062    
    104500   1.4517097      0.51370996     0              1.9617904      13.071654    
    105000   1.4543578      0.50559023     0              1.9563121      13.123032    
    105500   1.3633781      0.52052083     0              1.8804905      13.280645    
    106000   1.2450544      0.5695069      0              1.8114487      13.53759     
    106500   1.3624256      0.42886907     0              1.7878886      11.548574    
    107000   1.2449226      0.41692806     0              1.6587383      11.153759    
    107500   1.2253544      0.52455091     0              1.7468419      12.797593    
    108000   1.276271       0.47409532     0              1.7471757      12.613379    
    108500   1.2856106      0.47109996     0              1.7534966      12.196005    
    109000   1.2547187      0.46865313     0              1.720235       12.052307    
    109500   1.2639223      0.40378521     0              1.6645477      11.116026    
    110000   1.1959007      0.37866978     0              1.5715807      10.680259    
    110500   1.1224611      0.42400162     0              1.5436566      11.218502    
    111000   1.240002       0.36636345     0              1.6032655      10.212341    
    111500   1.2208325      0.43098803     0              1.6487684      11.472625    
    112000   1.257132       0.43837976     0              1.6923689      11.952318    
    112500   1.2543154      0.45973161     0              1.7109112      12.153333    
    113000   1.2355833      0.53614261     0              1.7686369      13.114368    
    113500   1.104897       0.48657108     0              1.5887058      12.010607    
    114000   1.16004        0.38265744     0              1.5397973      10.699914    
    114500   1.0838948      0.44183621     0              1.5230213      11.731799    
    115000   1.0583078      0.39241027     0              1.4480723      10.692689    
    115500   1.0852101      0.34608776     0              1.4285848      9.8488019    
    116000   1.0265919      0.36463407     0              1.3886595      10.627889    
    116500   0.9755435      0.34248376     0              1.3155884      9.7320727    
    117000   1.0500184      0.32341792     0              1.3708113      9.5231524    
    117500   1.0527817      0.35834573     0              1.4084955      10.086686    
    118000   1.0766909      0.37346559     0              1.4474648      10.093212    
    118500   1.033622       0.37466465     0              1.4057026      10.45986     
    119000   0.98683517     0.40515328     0              1.3895214      11.233459    
    119500   0.96040261     0.42504086     0              1.3830425      11.259974    
    120000   1.073824       0.37570391     0              1.4468433      10.287203    
    120500   0.95450039     0.36257576     0              1.3146899      9.883582     
    121000   1.0330159      0.26943483     0              1.2998682      8.2108916    
    121500   0.97694327     0.33229327     0              1.3067942      9.5541871    
    122000   0.93172609     0.29923988     0              1.2286367      8.7902831    
    122500   0.89764879     0.30876212     0              1.2041668      9.1210698    
    123000   0.89559569     0.28835169     0              1.1817084      8.5908134    
    123500   0.88074119     0.28445948     0              1.1629988      8.4635584    
    124000   0.87577051     0.27128617     0              1.1448672      8.5170298    
    124500   0.85991238     0.27480111     0              1.1325637      8.1112683    
    125000   0.78823901     0.29736874     0              1.0836371      8.5161564    
    125500   0.82390735     0.23486285     0              1.0567104      7.4980916    
    126000   0.76947898     0.25752443     0              1.0250797      8.1231816    
    126500   0.75160523     0.2749974      0              1.0247236      8.1411373    
    127000   0.74483571     0.26741113     0              1.0103848      7.9330742    
    127500   0.80220564     0.22597118     0              1.0261713      7.5565708    
    128000   0.73399192     0.2269237      0              0.95908064     7.2902701    
    128500   0.76932459     0.1944621      0              0.96186338     6.6568864    
    129000   0.72353915     0.28548647     0              1.0072168      8.5070185    
    129500   0.75820649     0.18261        0              0.93892098     6.2334643    
    130000   0.6996535      0.21798826     0              0.91589263     7.2163821    
    130500   0.69680451     0.20252521     0              0.89758771     6.7008139    
    131000   0.68226471     0.19745528     0              0.87801433     6.5530863    
    131500   0.6683455      0.20466267     0              0.87133731     6.4405081    
    132000   0.65748352     0.1839628      0              0.83980261     6.4721569    
    132500   0.65433761     0.15154944     0              0.80425121     5.4850497    
    133000   0.6102903      0.15711313     0              0.76587771     5.5229212    
    133500   0.60352546     0.13253412     0              0.73455077     5.0557966    
    134000   0.579756       0.14229485     0              0.72060146     5.3195044    
    134500   0.52208553     0.119289       0              0.64006931     4.6137781    
    135000   0.5177227      0.13899444     0              0.65542282     5.1569665    
    135500   0.51857755     0.13449373     0              0.65177483     5.0713387    
    136000   0.48229084     0.12984674     0              0.61093185     4.8144319    
    136500   0.4921512      0.12736565     0              0.61828647     5.0407814    
    137000   0.5099677      0.12987782     0              0.6385706      4.9468118    
    137500   0.46698634     0.11831957     0              0.58413844     4.6284162    
    138000   0.47183693     0.10747182     0              0.57812916     4.3682842    
    138500   0.44734838     0.099676163    0              0.54590617     3.964553     
    139000   0.43483596     0.09716776     0              0.53091663     4.0780869    
    139500   0.42113808     0.10567483     0              0.52576007     4.1966585    
    140000   0.38735668     0.099428888    0              0.48581717     4.143332     
    140500   0.37486923     0.099105711    0              0.47303777     4.0591905    
    141000   0.36148443     0.080813322    0              0.44139404     3.6066521    
    141500   0.35849962     0.085593862    0              0.44319723     3.6449753    
    142000   0.32319196     0.084983921    0              0.4073679      3.7554545    
    142500   0.32134456     0.071601783    0              0.39214298     3.3288055    
    143000   0.33473303     0.065767824    0              0.39966403     3.0727472    
    143500   0.29044352     0.072036801    0              0.36175422     3.2150705    
    144000   0.28056748     0.061764612    0              0.34163067     2.8254971    
    144500   0.27825271     0.051600629    0              0.3291577      2.6879755    
    145000   0.26166537     0.050140707    0              0.31115192     2.6004805    
    145500   0.23982892     0.039823497    0              0.27905285     2.2492893    
    146000   0.1969882      0.047586723    0              0.24408245     2.4531923    
    146500   0.19125866     0.026699816    0              0.21748033     1.6796091    
    147000   0.17508584     0.032695773    0              0.20734389     1.9836744    
    147500   0.16538582     0.029236928    0              0.19420929     1.7898288    
    148000   0.1572341      0.022712775    0              0.17955379     1.4917926    
    148500   0.14724048     0.020867524    0              0.16773991     1.3346429    
    149000   0.13082337     0.014828263    0              0.14532458     1.1002347    
    149500   0.11873958     0.015594783    0              0.13403752     1.1501856    
    150000   0.094317199    0.017887161    0              0.11196857     1.2006497    
Loop time of 2.24904 on 2 procs for 100000 steps with 400 atoms

Performance: 38416427.804 tau/day, 44463.458 timesteps/s, 17.785 Matom-step/s
94.8% CPU use with 2 MPI tasks x 1 OpenMP threads

MPI task timing breakdown:
Section |  min time  |  avg time  |  max time  |%varavg| %total
---------------------------------------------------------------
Pair    | 0.56108    | 0.5616     | 0.56212    |   0.1 | 24.97
Neigh   | 0.63841    | 0.65118    | 0.66394    |   1.6 | 28.95
Comm    | 0.45961    | 0.46976    | 0.47992    |   1.5 | 20.89
Output  | 0.068397   | 0.069097   | 0.069797   |   0.3 |  3.07
Modify  | 0.32686    | 0.32787    | 0.32887    |   0.2 | 14.58
Other   |            | 0.1695     |            |       |  7.54

Nlocal:            200 ave         202 max         198 min
Histogram: 1 0 0 0 0 0 0 0 0 1
Nghost:           82.5 ave          84 max          81 min
Histogram: 1 0 0 0 0 0 0 0 0 1
Neighs:          562.5 ave         576 max         549 min
Histogram: 1 0 0 0 0 0 0 0 0 1

Total # of neighbors = 1125
Ave neighs/atom = 2.8125
Neighbor list builds = 24102
Dangerous builds = 0
Total wall time: 0:00:03
