LAMMPS (15 Sep 2022)
OMP_NUM_THREADS environment is not set. Defaulting to 1 thread. (src/comm.cpp:98)
  using 1 OpenMP thread(s) per MPI task
# 3d WCA system, random initial configuration

#variable density equal 0.5
variable initial_temperature equal 3.0
variable final_temperature equal 0.1
variable dt equal 0.01
variable tau equal 100*${dt}
variable tau equal 100*0.01
variable thermo_time equal 50000*${dt}
variable thermo_time equal 50000*0.01
variable equil_steps equal 50000
variable run_steps equal 100000

units           lj
atom_style      atomic
dimension       3

lattice         fcc ${density}
lattice         fcc 1.3
Lattice spacing in x,y,z = 1.4544726 1.4544726 1.4544726
region          box block 0 8 0 8 0 8
# number of atom types
create_box      1 box
Created orthogonal box = (0 0 0) to (11.635781 11.635781 11.635781)
  1 by 1 by 2 MPI processor grid
create_atoms    1 box
Created 2048 atoms
  using lattice units in orthogonal box = (0 0 0) to (11.635781 11.635781 11.635781)
  create_atoms CPU = 0.000 seconds
mass 1 1.0

velocity all create ${initial_temperature} 12345
velocity all create 3 12345

pair_style      lj/cut 1.0
#type_1 type_2 epsilon sigma cutoff
pair_coeff      1 1 10.0 0.89089871814 1.0
pair_modify shift yes

timestep ${dt}
timestep 0.01
thermo ${thermo_time}
thermo 500

fix 1 all nvt temp ${initial_temperature} ${initial_temperature} ${tau}
fix 1 all nvt temp 3 ${initial_temperature} ${tau}
fix 1 all nvt temp 3 3 ${tau}
fix 1 all nvt temp 3 3 1
run ${equil_steps}
run 50000
Generated 0 of 0 mixed pair_coeff terms from geometric mixing rule
Neighbor list info ...
  update: every = 1 steps, delay = 0 steps, check = yes
  max neighbors/atom: 2000, page size: 100000
  master list distance cutoff = 1.3
  ghost atom cutoff = 1.3
  binsize = 0.65, bins = 18 18 18
  1 neighbor lists, perpetual/occasional/extra = 1 0 0
  (1) pair lj/cut, perpetual
      attributes: half, newton on
      pair build: half/bin/atomonly/newton
      stencil: half/bin/3d
      bin: standard
Per MPI rank memory allocation (min/avg/max) = 3.136 | 3.136 | 3.136 Mbytes
   Step          Temp          E_pair         E_mol          TotEng         Press     
         0   3              0              0              4.4978027      3.8980957    
       500   3.115589       2.8544756      0              7.5255772      51.328128    
      1000   3.0512326      2.6506377      0              7.2252518      48.579332    
      1500   2.9308694      2.7727215      0              7.166879       50.288503    
      2000   2.8964395      2.8934987      0              7.2360366      51.204128    
      2500   2.9753632      2.8173004      0              7.278166       50.723413    
      3000   2.9252414      2.9293403      0              7.31506        51.868034    
      3500   2.9191638      2.8427707      0              7.2193783      51.134051    
      4000   2.9867115      2.822849       0              7.3007287      50.721121    
      4500   2.97839        2.9137275      0              7.379131       52.028045    
      5000   3.0720194      2.7740056      0              7.3797847      50.124163    
      5500   2.9431168      2.9005886      0              7.3131083      51.044373    
      6000   2.9874463      2.8464693      0              7.3254508      51.097848    
      6500   2.998835       2.7674194      0              7.2634754      50.210463    
      7000   2.9452686      2.922584       0              7.3383298      51.546119    
      7500   3.0029187      2.9293384      0              7.4315171      51.903599    
      8000   2.9888712      2.8279595      0              7.3090772      50.687517    
      8500   2.9916155      2.9399656      0              7.4251977      52.022267    
      9000   3.0343072      2.811697       0              7.3609355      50.628804    
      9500   3.0005463      2.9221061      0              7.4207279      51.769684    
     10000   3.084658       2.7672698      0              7.3919975      49.969024    
     10500   3.0774718      2.7869263      0              7.40088        50.56322     
     11000   3.0246859      2.8699387      0              7.4047522      51.485649    
     11500   3.0124111      2.9257761      0              7.4421864      51.950129    
     12000   2.9737812      2.954022       0              7.4125157      51.892227    
     12500   3.0133932      2.8619454      0              7.379828       51.401301    
     13000   2.9411815      2.9956828      0              7.4053008      52.365325    
     13500   3.0035104      2.9105573      0              7.413623       51.875481    
     14000   3.0303478      2.8324261      0              7.3757284      50.777399    
     14500   2.9906876      2.9362971      0              7.4201381      51.937446    
     15000   3.057668       2.8369385      0              7.4212011      50.906794    
     15500   3.0056004      2.8901119      0              7.3963111      51.681879    
     16000   3.0245312      2.8422412      0              7.3768227      50.791789    
     16500   3.0076316      2.8926501      0              7.4018947      51.431734    
     17000   3.0497306      2.8309502      0              7.4033125      50.762429    
     17500   3.0655626      2.7677359      0              7.3638344      50.579135    
ERROR: Lost atoms: original 2048 current 2046 (src/thermo.cpp:481)
Last command: run ${equil_steps}
